ITEM: TIMESTEP
0
ITEM: NUMBER OF ATOMS
192
ITEM: BOX BOUNDS pp pp pp
0.0000000000000000e+00 1.2417099278418796e+01
0.0000000000000000e+00 1.2417099278418796e+01
0.0000000000000000e+00 1.2417099278418796e+01
ITEM: ATOMS type fx fy fz 
2 -0.188513 -1.26762 0.384542 
1 -0.165882 0.799379 -0.722277 
1 0.026867 0.289286 -0.211618 
2 0.243854 -0.523266 -0.620944 
1 -0.188336 0.0813574 0.131086 
1 0.0407078 0.295958 0.345795 
2 -1.95296 0.102434 -1.87103 
1 0.172123 0.50236 -0.114375 
1 2.01317 -0.525718 1.87146 
2 -0.0248335 2.07201 -0.135061 
1 -0.32626 -1.39507 0.386455 
1 0.320916 -0.530924 -0.151433 
2 1.69411 0.489231 -0.00128088 
1 -1.1328 -0.140176 -1.18988 
1 -0.0872858 -0.1449 0.515301 
2 -1.02354 1.15067 -0.483335 
1 0.250657 -0.724209 0.45547 
1 0.491044 -0.878012 0.0821164 
2 0.393082 -1.15696 -1.02354 
1 -0.520259 -0.541023 -1.02384 
1 -0.126395 1.62598 1.93385 
2 -0.79339 0.188481 2.51653 
1 2.63033 0.49702 -2.31868 
1 -1.91945 -0.402707 -0.311806 
2 0.978112 1.84339 0.328671 
1 -0.638918 -1.46006 0.109566 
1 -0.176584 -0.150144 -0.216183 
2 0.245186 -0.594649 -0.880287 
1 -0.630562 0.700257 0.245139 
1 0.435365 -0.0281305 0.786517 
2 -0.776338 1.06127 0.184059 
1 -0.00863641 0.120392 0.0814505 
1 0.656819 -0.960698 -0.378736 
2 -0.393489 0.0519634 -1.37129 
1 0.0430048 0.11445 0.40849 
1 0.485261 -0.0678037 1.28852 
2 -0.727418 0.147435 -0.146164 
1 0.684241 -0.0412519 0.425249 
1 0.101727 -0.138968 -0.431006 
2 0.512187 2.76397 0.789435 
1 -1.11243 -1.55883 -0.0245881 
1 0.815449 -0.883893 -0.425085 
2 0.188419 0.455389 0.403965 
1 0.322092 0.104129 -0.0589981 
1 0.0676248 -0.210892 -0.424023 
2 0.163537 0.355298 -0.535036 
1 -0.529937 -0.255271 -0.937239 
1 0.486345 0.0586522 1.19643 
2 -1.12192 1.74602 -0.829261 
1 0.0536991 -1.38202 -0.488613 
1 0.774606 -0.392808 1.02158 
2 -0.6486 0.699319 1.10342 
1 0.354896 -0.163318 -0.581188 
1 0.146656 -0.115286 -0.207619 
2 -0.283516 1.46652 1.26558 
1 0.149338 -0.785118 0.094817 
1 0.144927 -0.970603 -1.38571 
2 -0.565906 0.723553 1.038 
1 0.179005 -0.0106445 -0.628335 
1 0.0749923 -0.5125 -0.417255 
2 -0.934339 -0.282607 -1.44797 
1 1.49843 0.832879 2.25499 
1 -0.354311 -0.335399 -0.889325 
2 -0.491852 0.0746515 0.505886 
1 0.23079 -0.0659889 -0.055211 
1 0.276148 -0.11467 -0.449952 
2 -0.722959 -1.25222 -0.215076 
1 0.493768 0.689197 -0.0610416 
1 -0.318431 0.647437 0.18232 
2 0.911739 0.259038 0.714863 
1 0.378543 0.349744 -0.128756 
1 -1.083 -0.484866 -0.39906 
2 -0.0306728 -0.0986208 0.207603 
1 0.473596 0.376011 0.239218 
1 -0.501372 -0.101256 -0.11167 
2 -0.248146 -0.0409751 -0.357365 
1 -0.0538195 0.0620235 0.313513 
1 0.379364 -0.14319 -0.0542783 
2 0.319866 -0.92361 0.477518 
1 -0.00613107 -0.423698 0.206452 
1 -0.274094 1.23032 -0.97806 
2 0.861787 -0.670939 0.684412 
1 -0.379351 1.10176 -0.274897 
1 0.142098 0.388566 0.294468 
2 -0.586722 0.632039 -0.232358 
1 0.140108 -0.327418 -0.242371 
1 0.803353 -0.636842 0.398655 
2 -1.50012 -0.511534 -0.0957204 
1 0.890202 0.270208 0.239744 
1 0.509968 0.0948236 -0.279282 
2 0.753723 -1.06907 -0.431338 
1 -1.07154 0.764998 0.814437 
1 0.208901 0.594028 -0.334349 
2 0.680738 -2.18637 1.95868 
1 -0.6879 0.56542 1.32159 
1 -0.0512239 1.53887 -2.83675 
2 -0.0492278 1.1407 -1.20937 
1 -0.352409 0.111597 0.338043 
1 0.296588 -1.32345 0.686851 
2 0.861568 0.130535 1.40999 
1 -1.06579 -0.150975 0.0582226 
1 0.134901 0.0747423 -1.34265 
2 1.09031 0.153662 -0.499378 
1 -0.456754 -0.263611 0.271098 
1 -0.246626 0.352703 0.422592 
2 0.692522 0.698597 -2.3933 
1 -0.648448 -0.985103 1.1359 
1 0.081035 0.375828 1.33334 
2 -1.32126 -0.698036 0.308138 
1 0.36956 1.07299 -0.394353 
1 0.468786 -0.242428 -0.0888855 
2 -0.161189 0.15352 1.21906 
1 0.162835 -0.100916 -1.58099 
1 0.258903 -0.205013 0.35179 
2 -0.558948 0.0626644 -0.31305 
1 0.282196 -0.220868 0.43994 
1 -0.130202 0.155867 0.000890028 
2 -1.55458 0.307575 0.330496 
1 0.493302 0.47835 -0.0363606 
1 0.842233 -0.993461 -0.421403 
2 0.979316 -0.461977 -0.383139 
1 -0.565455 0.194261 0.524717 
1 -0.129209 0.317041 -0.234565 
2 0.538291 0.108059 0.106527 
1 -0.555024 -0.495732 0.123336 
1 0.0104312 -0.266084 0.0584115 
2 0.384148 -0.000353037 0.0189634 
1 -0.107151 -0.669001 0.207714 
1 -0.229956 0.597712 -0.0866089 
2 0.835068 0.753309 -0.654984 
1 -1.04414 -1.04765 0.92073 
1 0.327387 0.615279 -0.332644 
2 -0.151324 0.273687 1.32126 
1 -0.614925 0.448938 -1.00588 
1 0.596743 -0.718102 -0.266437 
2 -0.615175 0.257156 -1.61002 
1 1.57469 -0.102874 1.05251 
1 -0.75735 -0.197583 0.686846 
2 -0.145989 -0.0848071 0.275657 
1 0.13695 -0.726832 -0.424266 
1 0.236335 0.668865 -0.118054 
2 -0.853842 -1.0659 -2.54288 
1 0.0418999 -0.767732 0.862797 
1 0.405828 0.883759 1.8286 
2 1.42603 -1.64262 -0.31667 
1 -0.291638 0.468757 0.0396849 
1 -0.990367 1.33476 0.0269085 
2 -0.0151506 -1.72837 -1.28258 
1 0.156084 0.170567 0.900809 
1 0.221451 1.68216 0.318819 
2 0.0755041 -0.687293 -1.22452 
1 -0.317453 0.204217 0.106815 
1 0.227114 0.306256 0.928797 
2 0.00995303 0.708887 0.257983 
1 0.0532962 -0.437797 -0.0639179 
1 -0.480799 -0.177357 -0.0575234 
2 0.615756 0.745388 0.397146 
1 -0.658411 -0.60064 0.331665 
1 -0.417295 -0.275371 -0.66587 
2 -0.486693 -0.16625 -1.63306 
1 0.827599 -0.211748 1.32735 
1 -0.24767 0.62455 -0.208222 
2 -0.671017 -0.236041 1.61338 
1 1.12461 0.130964 -0.800955 
1 -0.0274793 -0.196552 -0.950651 
2 0.269917 -0.541149 0.517266 
1 -0.494947 0.336755 -0.150008 
1 -0.305055 0.199692 -0.302957 
2 -0.776366 -0.600957 1.7604 
1 0.222648 0.803111 -1.51484 
1 0.868266 -0.579188 0.0443258 
2 -0.790302 0.559738 -0.341436 
1 -0.0756165 -0.128526 0.112059 
1 0.593938 -0.540375 0.575571 
2 0.851466 -0.285295 -0.717573 
1 -0.129141 0.111023 -0.420035 
1 -0.856498 0.207491 0.824832 
2 1.36308 -0.906452 -0.754618 
1 0.0299343 0.317519 0.427955 
1 -1.7067 0.562966 0.157834 
2 0.13373 -0.229135 0.601534 
1 -0.229983 0.0113467 -0.78984 
1 -0.042623 0.183258 -0.00764089 
2 0.642533 -0.943117 1.32016 
1 -0.183434 -0.235821 -0.114893 
1 -0.399431 0.623433 -1.10707 
2 -0.724109 -1.5616 4.52382 
1 0.126632 -0.215567 -0.323799 
1 0.520652 1.79732 -4.13471 
2 -0.433331 -0.668775 -0.351619 
1 1.11269 0.361839 0.303031 
1 -0.441572 0.349675 0.67436 
ITEM: TIMESTEP
4
ITEM: NUMBER OF ATOMS
192
ITEM: BOX BOUNDS pp pp pp
0.0000000000000000e+00 1.2417099278418796e+01
0.0000000000000000e+00 1.2417099278418796e+01
0.0000000000000000e+00 1.2417099278418796e+01
ITEM: ATOMS type fx fy fz 
2 -0.69242 -0.225406 -0.282185 
1 0.480042 -0.0835134 0.0545961 
1 -0.123366 0.0300723 -0.263095 
2 0.298352 -0.840991 -1.10814 
1 -0.147274 0.0557739 0.0901372 
1 -0.154958 0.753702 0.874513 
2 -0.962361 -0.0479515 -1.08924 
1 0.138565 0.464125 -0.0825119 
1 1.05701 -0.360623 1.01239 
2 -0.0363951 1.42801 0.256759 
1 -0.294295 -1.04518 0.0160093 
1 0.28411 -0.287146 -0.156592 
2 1.44573 -0.201154 0.734919 
1 -1.18892 0.090581 -1.36341 
1 0.157211 0.315462 -0.0129318 
2 -0.443672 1.57648 -0.762897 
1 -0.40279 -1.42273 0.729463 
1 0.608535 -0.683069 0.165025 
2 -0.563668 -1.00315 -0.744745 
1 0.463474 -0.178655 -0.483367 
1 -0.0283406 1.03569 1.1243 
2 -0.381786 0.0426189 -0.963208 
1 0.426507 0.187788 0.0846969 
1 -0.127406 0.120016 0.570998 
2 -0.273239 -1.37252 0.45855 
1 0.572151 1.72486 -0.0929667 
1 -0.246889 -0.0629734 -0.237732 
2 -0.675709 -0.164024 0.2271 
1 0.565981 -0.300282 0.37593 
1 0.163577 0.630023 -0.377774 
2 -1.2638 0.360281 -0.32609 
1 0.365973 0.854225 0.519823 
1 0.837357 -0.976746 -0.27715 
2 -0.977573 0.041586 -1.30471 
1 0.533921 -0.144904 -0.0847748 
1 0.533744 0.00972179 1.61569 
2 -0.89484 -0.0413913 0.459907 
1 0.444487 -0.0192557 0.461702 
1 0.455794 0.0701897 -1.05213 
2 -0.843724 0.724041 0.624211 
1 0.391218 0.323682 0.140017 
1 0.684315 -0.80514 -0.459458 
2 1.13494 0.590971 1.30614 
1 -0.55423 1.1953 -0.380055 
1 0.0833031 -1.30441 -0.966449 
2 0.726021 0.285859 0.482963 
1 -0.245402 -0.556541 -0.384226 
1 -0.261166 0.388724 -0.43817 
2 -0.718516 1.06595 -0.623046 
1 -0.347673 -0.487881 -0.450514 
1 0.775719 -0.732361 0.708202 
2 0.360591 1.0085 1.12585 
1 -0.48141 0.338093 -0.112488 
1 -0.0179389 -0.942885 -0.624106 
2 0.478803 -0.815798 1.99181 
1 -0.450102 0.764369 -1.80145 
1 0.00177231 -0.212108 -0.127229 
2 -0.522334 -0.539418 -0.352569 
1 -0.135626 0.0651534 -0.350752 
1 0.132637 0.633597 0.502077 
2 -0.186951 0.569729 1.21954 
1 -0.168489 -0.073222 -0.112552 
1 0.650246 -0.275541 -1.2236 
2 -0.121134 -1.00648 1.75843 
1 -0.241749 0.92107 -1.16046 
1 0.352432 -0.164595 -0.585973 
2 -0.868581 -2.14544 -0.174538 
1 0.257435 0.766691 0.00821859 
1 0.0498806 1.49429 0.0150425 
2 0.631911 -0.533772 1.13458 
1 0.715993 1.13469 -0.488517 
1 -1.07138 -0.530706 -0.49037 
2 -1.73773 -0.216843 0.732475 
1 1.63958 0.574755 -0.492362 
1 0.093522 -0.255609 0.044892 
2 0.580626 -0.0162523 0.186924 
1 0.182918 0.201945 0.59494 
1 -0.701463 -0.487106 -0.839998 
2 0.230023 -0.94735 0.429198 
1 0.11375 -0.0878146 -0.0179589 
1 -0.3557 0.934615 -0.575098 
2 0.551799 -0.335339 0.301186 
1 -0.0864519 0.756037 -0.105155 
1 0.21016 0.359664 0.6515 
2 0.477036 -1.4356 0.199028 
1 -0.00258991 -0.893137 -0.972004 
1 -0.188599 2.09665 0.742063 
2 0.134822 0.321704 -0.297197 
1 -0.468428 0.2274 -0.160599 
1 0.175189 -0.665674 0.334681 
2 0.827311 -1.37389 -0.667614 
1 -1.31057 1.02989 1.10924 
1 0.348939 0.531864 -0.451263 
2 0.804799 -1.79224 0.809778 
1 -0.855247 0.798197 1.51904 
1 -0.0149047 0.989933 -1.94261 
2 0.32208 0.584502 -1.45381 
1 -0.545272 0.244762 0.640138 
1 0.114686 -0.822513 0.632466 
2 -1.15428 0.317462 -0.483265 
1 0.813383 -0.11009 0.0104109 
1 0.339206 -0.197975 0.714178 
2 -0.854873 -0.658017 -0.458109 
1 1.77061 -0.0629375 -0.448464 
1 -0.565634 0.913525 1.12746 
2 -0.58295 -0.415479 0.222587 
1 0.436015 0.0723152 -1.43556 
1 0.142353 0.442418 1.28141 
2 1.43086 0.662901 -0.687142 
1 -0.447337 -0.725675 0.367254 
1 -1.41048 0.336487 0.196384 
2 0.636939 -0.0923503 0.320732 
1 -0.00875013 -0.11489 -0.00458762 
1 -0.429076 0.103186 -0.465274 
2 0.491542 1.05298 -0.786241 
1 0.0626933 -0.397883 0.367258 
1 -1.0054 -0.699406 0.513253 
2 0.374999 -2.24226 -1.0637 
1 -1.4457 1.02562 0.932374 
1 0.740412 0.953459 -0.0147226 
2 -0.984219 -0.0995428 1.08978 
1 1.41054 0.335101 -1.4737 
1 -0.0648756 -0.243505 0.267771 
2 1.63947 -0.110893 0.527745 
1 -0.272062 -0.566538 0.237129 
1 -1.33916 -0.0143823 -0.525523 
2 -1.11797 -1.36726 -0.262302 
1 1.32421 0.84176 0.38298 
1 -0.154875 0.493963 -0.018115 
2 0.0967856 0.364689 -0.61093 
1 -0.395703 -0.521546 0.74422 
1 0.468371 0.132372 -0.0805752 
2 -2.0476 1.71759 -0.0878931 
1 1.02109 -0.907815 -1.15907 
1 0.898443 -0.654598 1.30864 
2 1.62841 -0.077433 -0.399051 
1 -0.759681 0.15158 -0.141028 
1 -0.62876 -0.136549 0.555831 
2 0.500595 2.33761 -0.346937 
1 0.161302 -0.752162 -0.555041 
1 -0.487503 -1.58903 0.657202 
2 -0.805424 -2.25394 -1.63392 
1 -0.0256221 0.266969 -0.0654921 
1 0.475977 1.04154 1.78847 
2 0.93114 -1.30268 -0.679731 
1 -0.00823972 0.771874 0.847145 
1 -0.82284 0.665277 -0.469687 
2 -0.423009 -2.54286 -1.52702 
1 0.19383 0.404974 0.920337 
1 0.41984 2.2867 0.470958 
2 1.14993 -0.196824 -0.100477 
1 -0.0684664 0.228398 0.0847989 
1 -1.03622 -0.162707 -0.115928 
2 -2.25244 -1.36811 -0.743142 
1 0.808481 1.86981 1.07242 
1 1.02135 -0.408669 -0.203563 
2 0.481364 0.55619 0.979969 
1 -0.463776 -0.412253 -0.755618 
1 -0.524905 -0.181911 -0.122617 
2 0.450913 -0.65513 -1.31832 
1 0.552974 -0.186621 0.903758 
1 -0.873583 1.05061 -0.0520897 
2 -0.722954 0.0369923 2.78457 
1 1.50188 0.18857 -1.47978 
1 -0.360354 -0.422038 -1.44682 
2 0.541536 0.112878 0.826325 
1 -0.225287 0.54743 0.133988 
1 -0.82191 -0.587956 -0.880889 
2 -1.3627 0.999387 0.485727 
1 1.06104 -0.881347 -0.440612 
1 0.584151 -0.360196 0.224241 
2 0.288014 0.434813 -0.6665 
1 -0.26941 -0.492837 0.391725 
1 -0.196543 0.0550281 0.614022 
2 1.49704 -0.557544 -0.178934 
1 -1.18609 0.591568 -0.442635 
1 -0.369953 0.0942015 0.43625 
2 1.31176 -1.17202 -1.14995 
1 -0.335267 0.742271 0.914772 
1 -1.16908 0.387686 0.118346 
2 0.812214 -1.05158 2.00542 
1 -0.0650253 -0.40091 -1.07196 
1 -0.834191 1.4053 -0.990724 
2 0.337722 0.305516 -0.353789 
1 -0.720525 -0.740505 0.56296 
1 0.450434 -0.0574924 -0.167485 
2 -0.173232 -0.429899 -0.664271 
1 0.732352 0.763623 0.140192 
1 -0.646621 -0.220946 0.626138 
2 -1.68984 -1.11549 -0.366285 
1 1.09098 0.194005 0.0136493 
1 0.843359 0.867568 0.995408 
ITEM: TIMESTEP
8
ITEM: NUMBER OF ATOMS
192
ITEM: BOX BOUNDS pp pp pp
0.0000000000000000e+00 1.2417099278418796e+01
0.0000000000000000e+00 1.2417099278418796e+01
0.0000000000000000e+00 1.2417099278418796e+01
ITEM: ATOMS type fx fy fz 
2 -0.828955 0.374269 -0.688335 
1 0.721551 -0.582774 0.474686 
1 -0.184846 -0.232772 -0.23589 
2 -0.0705681 -0.487119 -0.443764 
1 0.156132 0.0882438 -0.0327826 
1 -0.170673 0.392523 0.43401 
2 2.03545 -0.596282 1.7275 
1 -0.241344 -0.000114976 0.212197 
1 -1.56624 0.672086 -2.03137 
2 0.503511 -1.14659 0.0355057 
1 -0.136363 0.9148 -0.405067 
1 -0.340571 0.27319 0.408188 
2 -0.430061 -1.04323 -0.234384 
1 0.472238 0.701937 0.081588 
1 0.201487 0.576649 -0.360506 
2 -0.016915 0.152719 -0.204083 
1 -0.177024 -0.508033 0.467185 
1 -0.13121 -0.157287 -0.0760068 
2 -1.94497 1.20073 1.4722 
1 1.25763 0.30422 0.0687851 
1 0.625375 -1.61835 -1.64832 
2 -0.164505 -0.0272604 -3.0117 
1 -1.24277 -0.073927 1.8909 
1 1.37062 0.463633 0.802128 
2 -0.461399 -1.95414 0.270838 
1 0.776883 2.07172 -0.19839 
1 -0.307688 0.220371 0.0237644 
2 -0.981252 0.138165 0.506653 
1 0.98846 -0.807616 0.449744 
1 0.048791 0.857979 -0.806678 
2 -0.330589 -0.476821 -0.244874 
1 0.356749 0.611029 0.326251 
1 -0.0563587 0.0174123 -0.114153 
2 -0.0681646 0.758784 0.698882 
1 0.49386 -0.176201 -0.129784 
1 -0.329291 -0.837865 -0.3739 
2 0.159301 -0.152625 0.740727 
1 -0.224666 0.296575 -0.268989 
1 0.0665896 -0.103194 -0.527223 
2 -0.754667 -1.41476 -0.0260106 
1 1.24965 1.2264 0.168681 
1 -0.170857 0.267082 0.0188179 
2 0.610846 0.501501 0.943506 
1 -0.213924 0.931408 -0.295677 
1 0.281087 -0.94795 -0.711804 
2 0.744175 -0.0750945 0.451177 
1 0.373028 -0.0455841 0.462163 
1 -0.775583 0.390984 -1.29493 
2 0.544156 -1.08595 0.332925 
1 -0.86909 1.03836 -0.092938 
1 0.00139031 -0.210168 -0.57949 
2 0.705329 0.423881 0.759895 
1 -0.86143 0.536129 0.0177834 
1 0.0870489 -0.528682 -0.346595 
2 0.417117 -1.88233 -0.0511952 
1 -0.339834 0.446997 -1.47328 
1 -0.141273 1.1808 1.54862 
2 -0.142397 -0.658054 -1.16875 
1 -0.534704 0.0113685 0.117443 
1 0.038594 0.811724 0.728573 
2 1.14094 0.78093 1.5342 
1 -1.02899 -0.870042 -2.03376 
1 0.310772 0.249146 0.148764 
2 0.1816 -0.528224 0.192633 
1 -0.0914717 0.220201 -0.261665 
1 -0.0331562 0.102886 -0.00126542 
2 0.0120049 -0.47034 -0.572158 
1 -0.0660933 0.569274 0.195253 
1 -0.436431 0.0833669 0.173378 
2 -0.488674 0.0659386 -0.0765633 
1 0.0253179 0.113473 -0.0614328 
1 0.788432 -0.156133 0.143571 
2 -0.332953 -0.308097 0.652513 
1 -0.0485313 0.680825 -0.378811 
1 0.53056 -0.272212 -0.0112747 
2 0.416468 0.405404 0.282755 
1 0.184688 -0.210146 0.39242 
1 -0.613834 -0.536743 -0.849678 
2 -0.225355 0.0227399 -0.170937 
1 -0.0121274 0.1711 -0.066128 
1 0.168054 -0.146552 0.161567 
2 0.00367144 1.49526 0.477997 
1 0.67854 -0.654296 0.240364 
1 -0.00835432 -0.101095 0.279091 
2 -0.140817 -1.19047 -0.904873 
1 0.326739 -0.437706 0.201801 
1 0.0458481 1.33127 0.645403 
2 1.00185 0.326065 -0.119724 
1 -1.04077 0.0519215 -0.226848 
1 -0.135746 -0.54975 0.16816 
2 -0.446796 0.16212 0.201026 
1 -0.173574 0.438391 0.128461 
1 0.446761 -0.400023 -0.227262 
2 -0.22748 1.54776 -2.12825 
1 0.288597 -0.207623 -0.189515 
1 -0.10189 -1.44537 2.66005 
2 0.199 -1.44251 -0.257376 
1 -0.184169 0.323753 0.206764 
1 -0.141379 1.24142 -0.0473496 
2 -2.03373 0.589265 -1.78405 
1 1.43885 -0.111689 0.0797958 
1 0.523832 -0.389705 1.98436 
2 -0.176412 0.595576 0.647789 
1 0.693933 -0.144666 -0.118461 
1 -0.18732 -0.308758 -0.279401 
2 -0.30645 -0.266172 2.23209 
1 0.822909 0.617648 -1.72727 
1 -0.612698 -0.337759 -0.424914 
2 1.95712 0.754581 -0.967074 
1 -0.765452 -1.17212 0.668486 
1 -1.4506 0.78994 0.213366 
2 0.785412 -0.0893353 -0.776174 
1 -0.16593 0.0115012 1.33632 
1 -0.579075 0.0714547 -0.828503 
2 0.814398 1.05764 0.113819 
1 -0.411484 -0.605584 -0.259138 
1 -0.862862 -0.610998 0.18178 
2 0.116541 -1.94462 -0.807543 
1 -0.902287 0.52882 0.51479 
1 0.491219 1.21167 0.209553 
2 -0.936429 0.302056 0.644557 
1 1.21617 0.0844484 -1.11982 
1 0.055309 -0.381577 0.390008 
2 0.166086 -0.313396 0.187739 
1 0.515827 0.140981 0.179514 
1 -0.678943 -0.539936 -0.141891 
2 -1.22566 -0.277134 -0.13012 
1 1.00079 0.510977 0.263032 
1 0.262612 -0.252572 -0.0914883 
2 -1.16943 -1.351 0.392944 
1 1.02967 1.1002 -0.218248 
1 0.32964 -0.103994 0.0400336 
2 -1.63735 1.40719 0.243639 
1 1.07458 -0.956549 -0.633416 
1 0.398293 -0.244042 0.552585 
2 1.86301 -0.735891 1.34251 
1 -2.14184 0.501843 -0.700314 
1 0.534939 0.220776 -0.62293 
2 0.399273 0.59269 -0.927221 
1 0.0336815 0.313121 0.473181 
1 -0.294278 -0.809599 0.149257 
2 -0.105673 -1.46426 1.2952 
1 0.0580866 1.19773 -0.442321 
1 -0.220737 -0.646878 -0.837626 
2 0.220588 0.585888 0.400145 
1 -0.205375 0.725669 0.389223 
1 0.102187 -1.14085 -1.10586 
2 0.150453 0.202777 0.831155 
1 0.429211 0.515558 -0.160404 
1 -0.472294 -0.620705 -0.841593 
2 1.04723 0.090711 0.290774 
1 0.202101 0.10552 -0.121376 
1 -1.16319 -0.248542 -0.307642 
2 -1.67015 0.0563192 -0.0525361 
1 0.323763 0.369255 0.26985 
1 0.841793 -0.297653 -0.180527 
2 -0.119516 0.19219 0.681304 
1 -0.00190561 -0.170137 -0.830361 
1 -0.416533 0.110326 0.390522 
2 0.976396 -0.642753 0.588755 
1 -0.477058 0.480635 -0.832624 
1 -0.291112 0.327777 -0.11395 
2 0.237541 -0.03789 -0.747478 
1 -0.205805 -0.0355855 0.994014 
1 0.259598 -0.018627 -0.288463 
2 0.100014 0.00908798 0.84958 
1 0.0680963 0.496063 0.203127 
1 -0.530017 -0.559598 -0.977444 
2 -1.09791 1.16494 -0.0301998 
1 1.06313 -1.33106 0.188826 
1 0.248069 0.0214833 0.11499 
2 0.840303 -0.0402283 -0.65278 
1 -0.0500229 -0.377626 0.385736 
1 -0.942603 0.502112 0.515575 
2 -0.322504 0.122179 0.448812 
1 -0.0358819 0.306888 0.0704623 
1 0.350618 -0.276756 -0.563031 
2 -1.42328 0.0694334 0.0449153 
1 -0.0903139 -0.24817 -0.32434 
1 1.37863 0.071362 0.194956 
2 -0.221147 0.181967 0.152923 
1 0.195939 -0.249774 0.30042 
1 -0.127184 -0.0533015 -0.427569 
2 -0.868224 0.834844 -1.14954 
1 -0.311384 -0.501901 0.309919 
1 1.26956 -0.778143 0.844808 
2 -0.00403414 0.434616 -3.13912 
1 0.716358 0.485949 0.471221 
1 -0.78136 -0.855519 2.73845 
2 0.238939 -0.0681721 0.394651 
1 -0.132972 0.0883968 0.201113 
1 0.135588 -0.0196544 0.0164441 
ITEM: TIMESTEP
12
ITEM: NUMBER OF ATOMS
192
ITEM: BOX BOUNDS pp pp pp
0.0000000000000000e+00 1.2417099278418796e+01
0.0000000000000000e+00 1.2417099278418796e+01
0.0000000000000000e+00 1.2417099278418796e+01
ITEM: ATOMS type fx fy fz 
2 -0.45255 0.186455 -0.476286 
1 0.244598 -0.305164 0.0728016 
1 -0.0820398 -0.400823 -0.0512182 
2 -0.392953 0.524881 0.917782 
1 0.140031 0.00324419 -0.0479325 
1 0.101146 -0.610277 -0.830908 
2 1.97845 -0.253791 1.29907 
1 -0.475323 -0.217044 0.251857 
1 -1.24093 0.525845 -1.66799 
2 0.535519 -2.0168 0.127926 
1 0.0123934 1.44134 -0.537206 
1 -0.441918 0.571962 0.408403 
2 -2.03336 -1.13103 -1.70105 
1 2.04451 1.19409 1.42976 
1 0.167547 0.311022 -0.164965 
2 -0.480172 -2.00125 0.74632 
1 0.779091 1.19487 -0.269644 
1 -0.685134 0.293889 -0.343781 
2 -1.22183 1.65685 1.8881 
1 0.488925 0.0609873 -0.226952 
1 0.618647 -1.72449 -1.77727 
2 0.239992 0.175938 -2.20305 
1 -1.36796 -0.204775 1.63274 
1 1.08867 0.299421 0.238004 
2 0.648252 1.32133 0.652415 
1 -0.331168 -1.40054 -0.507302 
1 -0.263929 0.339113 0.0519318 
2 -0.438941 -0.0559168 -0.131333 
1 0.343653 -0.322163 0.410375 
1 0.154115 0.496947 -0.254837 
2 1.05352 -0.672336 0.365805 
1 0.076422 -0.404444 -0.302782 
1 -1.10673 1.11971 -0.0515812 
2 0.927736 0.842239 0.972617 
1 -0.163003 -0.0705829 0.204625 
1 -0.62325 -1.14968 -0.965922 
2 1.12775 0.162849 -0.0647947 
1 -0.310238 0.326763 -0.392205 
1 -0.799894 -0.454181 0.459692 
2 0.475764 -2.04091 -0.567554 
1 0.905577 0.791259 0.0530276 
1 -0.949788 1.3098 0.525504 
2 -0.927462 -0.159172 -0.637303 
1 1.00482 -0.419656 0.161602 
1 0.542252 0.954201 0.367667 
2 -0.479805 0.544099 -1.18582 
1 0.762294 0.310439 0.840968 
1 0.0516051 -0.518422 -0.106154 
2 1.26822 -1.96615 1.59396 
1 -0.815768 1.09789 -0.14039 
1 -0.819477 0.552166 -1.75232 
2 -0.11647 -0.473514 0.380966 
1 -0.136127 0.0839429 -0.401762 
1 0.391998 0.808499 0.336268 
2 -0.294605 0.137999 -1.1825 
1 0.224911 -0.680654 0.968209 
1 -0.0388259 0.360284 0.231703 
2 0.392321 0.216458 -0.608103 
1 -0.407685 0.170514 0.157736 
1 -0.679206 -0.21274 0.13668 
2 0.638964 0.0334046 -0.330563 
1 -0.167313 -0.60841 -1.32867 
1 -0.0893192 0.630679 1.024 
2 0.566877 0.308564 -1.70731 
1 0.0433507 -0.73094 0.891665 
1 -0.465917 0.386168 0.642047 
2 0.38575 1.15255 -0.320961 
1 -0.0559291 0.219521 0.0907912 
1 -0.700954 -1.03551 0.0053826 
2 -0.4147 1.11021 -0.877284 
1 -0.816197 -1.31948 0.47312 
1 1.65457 0.123722 0.392032 
2 1.37259 -0.503248 0.905464 
1 -1.48724 0.644719 -0.2146 
1 0.381361 -0.0512393 -0.400126 
2 -0.769973 0.600097 -0.242683 
1 0.00325187 -0.609403 0.0370506 
1 0.704137 -0.284846 -0.00896442 
2 -0.505548 1.07078 -0.966651 
1 -0.308425 0.177726 0.290129 
1 0.658142 -1.0453 0.668522 
2 0.172148 1.96426 1.10776 
1 0.667923 -0.746422 0.306055 
1 -0.233897 -0.532744 -0.357958 
2 -0.910137 0.769584 -1.24478 
1 0.493414 0.115452 0.862128 
1 0.58683 -1.27378 0.317948 
2 0.0397466 0.0135525 -0.0445925 
1 0.23158 -0.450512 0.282148 
1 -0.42146 0.173948 -0.479828 
2 -2.16319 1.30229 1.8672 
1 1.67951 -0.551532 -1.68908 
1 0.284298 -0.514991 0.042989 
2 -1.06103 2.23524 -1.13537 
1 1.3811 -1.15077 -1.34726 
1 -0.224604 -1.31186 2.75061 
2 -0.563957 -1.66163 0.842213 
1 0.413133 0.296139 -0.58192 
1 -0.0721501 1.47809 -0.265148 
2 -0.801923 0.503773 -0.226554 
1 -0.269572 -0.476553 0.745358 
1 0.812723 0.0473438 -0.343594 
2 1.42066 1.19767 0.952965 
1 -1.28781 -0.202477 0.226676 
1 0.198794 -0.860449 -1.03577 
2 0.147117 0.0638521 1.09224 
1 0.438656 0.258012 0.168927 
1 -0.674286 -0.338032 -1.19508 
2 0.0682787 -0.991224 0.140912 
1 -0.466144 0.729828 -0.0699692 
1 0.196192 0.724498 -0.145618 
2 -0.140192 0.299075 -1.06321 
1 -0.0336578 0.129948 1.07571 
1 0.164713 -0.399872 -0.251248 
2 -0.108771 -0.0491385 1.1782 
1 -0.443635 -0.627913 -0.297586 
1 0.156318 0.452472 -0.807405 
2 -1.51566 1.35661 0.535114 
1 1.51875 -0.72503 -0.638342 
1 -0.151864 -0.714119 0.128534 
2 0.879607 0.0608379 -0.962979 
1 -0.828831 -0.0451826 0.991418 
1 0.16045 0.0380237 -0.0839173 
2 -1.2328 0.0833815 -0.256761 
1 0.634677 0.400438 0.123757 
1 0.586713 -1.14073 0.383068 
2 0.11261 1.2502 0.253365 
1 -0.505056 -0.937329 -0.173224 
1 0.38626 -0.317611 -0.0974504 
2 -0.60314 -1.79884 0.790504 
1 0.983842 1.34457 -0.342348 
1 -0.247745 0.114906 -0.162354 
2 0.969478 -0.565011 1.31683 
1 -0.705481 0.421591 0.0484805 
1 -0.465427 0.251958 -1.03261 
2 -0.810474 -0.193766 0.708498 
1 0.341896 -0.100005 0.20473 
1 0.626392 0.295868 -0.859008 
2 -0.0332356 -1.752 -0.256069 
1 -0.0206697 0.75979 0.847148 
1 0.172835 1.13526 -0.969731 
2 0.262371 -0.183363 2.15642 
1 0.233281 1.00137 0.088462 
1 -0.741778 -1.66595 -2.26471 
2 0.25042 1.08401 1.05978 
1 -0.400785 0.213112 -0.627743 
1 0.382683 -1.04857 -0.675378 
2 0.307532 1.29851 2.02642 
1 0.60329 0.417415 -1.06372 
1 -0.727292 -1.60927 -1.08949 
2 -0.302335 -0.122036 -0.519654 
1 0.178873 0.0752641 -0.321221 
1 0.276759 0.042987 0.714301 
2 0.470409 1.77893 0.821438 
1 -0.366527 -1.58217 -0.804836 
1 -0.686083 -0.0568932 -0.0705697 
2 -0.655551 -0.30893 -0.499082 
1 0.403647 0.0745254 0.0293994 
1 -0.175143 0.437307 0.821467 
2 0.0456854 0.279603 1.09848 
1 -0.704078 0.662482 -0.993178 
1 0.89392 -0.75079 -0.384065 
2 0.225376 -0.373216 -2.45417 
1 -0.891276 -0.193359 1.48948 
1 0.915809 0.542819 1.0272 
2 -1.14922 -1.1418 0.438312 
1 0.219465 0.214203 -0.0305417 
1 0.702205 0.800573 -0.383163 
2 -0.225102 -0.52547 0.653273 
1 0.181003 -0.0687373 0.124218 
1 0.0610073 0.434463 -0.429707 
2 -0.440376 -0.345375 -0.410615 
1 0.534115 0.150701 0.0878683 
1 -0.270017 0.258814 0.614111 
2 -1.51633 0.317217 0.0269815 
1 1.00634 0.10201 0.463761 
1 0.494358 -0.308534 -0.482271 
2 -1.59017 0.820831 0.872022 
1 -0.161806 -0.83009 -1.04004 
1 1.64283 -0.10312 0.0738021 
2 -1.07762 1.23277 -1.47258 
1 0.298871 0.0367174 1.30281 
1 0.521769 -1.38566 0.195537 
2 -0.950153 -0.590937 0.783748 
1 0.624374 0.235074 -0.647878 
1 0.394025 -0.0744539 -0.113927 
2 -0.0301147 0.929748 -2.74753 
1 0.213186 -0.514965 0.62188 
1 -0.253843 -0.293769 2.25785 
2 1.4675 0.821336 1.38215 
1 -0.756424 -0.0484195 0.157149 
1 -0.510591 -0.766443 -1.09299 
ITEM: TIMESTEP
16
ITEM: NUMBER OF ATOMS
192
ITEM: BOX BOUNDS pp pp pp
0.0000000000000000e+00 1.2417099278418796e+01
0.0000000000000000e+00 1.2417099278418796e+01
0.0000000000000000e+00 1.2417099278418796e+01
ITEM: ATOMS type fx fy fz 
2 -0.0994338 -0.354809 0.0493323 
1 -0.418234 0.221531 -0.637162 
1 0.207009 -0.445248 0.269015 
2 -0.300843 0.739567 1.08116 
1 -0.0966052 -0.142014 -0.00036276 
1 0.162621 -0.74631 -1.01214 
2 -0.132645 0.672957 -1.5456 
1 -0.146203 0.239777 -0.140254 
1 0.67767 -0.890002 1.48237 
2 -0.0891795 0.0930883 0.684061 
1 0.0231796 -0.547344 -0.539102 
1 0.150729 0.387707 -0.11127 
2 0.0315242 0.12641 -0.540853 
1 0.0380024 0.484784 -0.174785 
1 0.181226 -0.255652 0.207286 
2 -0.71139 -1.77755 0.474797 
1 0.258531 0.753158 -0.266334 
1 0.101818 0.452399 -0.0155331 
2 0.899506 -0.64623 -0.145794 
1 -0.455298 -0.367385 -0.545933 
1 -0.569092 0.995356 0.560334 
2 0.725109 0.449192 0.867628 
1 0.044975 -0.0416176 -0.647728 
1 -0.902039 -0.217051 -0.502228 
2 0.914861 2.17529 0.963265 
1 -0.596029 -2.15944 -0.53609 
1 -0.209897 0.183781 -0.196908 
2 0.36001 -0.564588 -1.27092 
1 -0.866599 0.844727 0.289006 
1 0.498035 -0.220763 0.95531 
2 0.36785 0.602679 0.538611 
1 -0.0994728 -0.892989 -0.629809 
1 -0.069631 0.358148 0.160072 
2 1.08123 0.320471 -0.00121408 
1 -0.634517 -0.0548646 0.303129 
1 -0.384232 -0.691542 -0.162431 
2 0.600779 0.481699 -0.650931 
1 0.137165 -0.0773946 0.450893 
1 -0.739452 -0.348499 0.230067 
2 1.53675 0.910427 0.088645 
1 -0.80144 -1.18898 -0.0899087 
1 -0.32731 0.421555 -0.0765186 
2 -1.05784 -0.799241 -1.06305 
1 1.09341 -0.713182 0.227665 
1 0.526799 1.82845 0.762863 
2 -1.06602 1.78367 -1.68065 
1 0.547625 -0.503871 0.510424 
1 0.778405 -0.957983 0.596211 
2 -0.00326583 0.288712 0.838739 
1 -0.287366 -0.4916 -0.610163 
1 -0.107262 -0.105232 -0.582647 
2 -0.868371 -0.182778 0.648296 
1 0.750192 -0.474167 -0.8704 
1 0.365932 1.03356 0.439679 
2 -0.44006 1.48768 -0.590751 
1 0.330623 -0.665968 1.84249 
1 -0.0581463 -0.878207 -1.26641 
2 0.283248 0.416322 -0.0958059 
1 0.0145162 0.446803 -0.157728 
1 -1.08229 -0.716946 -0.207589 
2 -1.68756 -1.3274 -3.28145 
1 1.93812 0.639943 1.49034 
1 -0.0290598 0.741179 1.11866 
2 0.468713 0.404203 -1.21312 
1 -0.0858466 -0.6494 0.779936 
1 -0.177357 0.201039 0.211029 
2 -0.136729 1.36247 0.452586 
1 0.0119406 -0.241312 -0.21158 
1 -0.164682 -0.63978 -0.459843 
2 1.02031 -0.0264632 0.693847 
1 -0.248262 -0.125057 -0.0214956 
1 -0.270666 -0.0505149 -0.633459 
2 1.23086 -0.505707 1.0356 
1 -1.19478 0.502548 -0.259941 
1 0.250487 0.0979691 -0.489632 
2 -1.23769 0.100344 -0.637399 
1 -0.163758 -0.22618 0.0152804 
1 1.35778 -0.0854291 0.451912 
2 0.242913 0.54557 -1.07238 
1 -0.367371 0.225952 0.494085 
1 -0.0448005 -0.529291 0.754686 
2 0.682803 0.301011 1.06132 
1 -0.0296886 0.666265 0.0620534 
1 -0.0795442 -0.282197 -0.185477 
2 -0.378651 1.38907 -0.147987 
1 0.159272 0.128388 0.0941561 
1 0.336888 -1.89967 -0.0326172 
2 -0.36417 0.0826634 -0.0926664 
1 0.846197 -0.711056 0.504208 
1 -0.601724 0.382248 -0.625366 
2 -0.880178 0.473176 0.70058 
1 0.655073 -0.400961 -0.656605 
1 0.0405585 0.125845 0.137559 
2 -0.157757 -0.985481 1.85498 
1 0.386039 -0.128096 -0.205693 
1 -0.110832 0.970509 -1.60197 
2 -0.797706 0.149194 0.286613 
1 0.456415 0.229987 -0.595455 
1 0.0732396 -0.333375 0.323044 
2 -0.00769828 0.27819 0.794967 
1 -1.03492 -0.659533 0.935967 
1 0.69867 0.263585 -1.47343 
2 1.53081 0.518188 0.291814 
1 -1.3349 -0.0691367 0.181949 
1 0.140418 -0.294972 -0.454623 
2 -0.311072 0.0781489 -2.24986 
1 -0.253179 -0.797507 2.40141 
1 0.467453 0.72866 -0.0887991 
2 -1.92766 -1.31286 1.04455 
1 -0.12006 1.55787 -0.530696 
1 1.83997 0.31663 -0.509206 
2 -1.1304 0.834454 0.0466583 
1 0.357898 -0.0236304 -0.510594 
1 0.830271 -0.781162 0.372238 
2 -0.96177 -0.691362 0.844715 
1 0.0812434 -0.366384 0.398243 
1 0.571377 0.858036 -1.04165 
2 -0.445026 2.26559 0.463769 
1 1.12513 -0.934409 -0.478849 
1 -0.779873 -1.40132 0.0440166 
2 1.29958 -0.230938 -1.08547 
1 -1.29152 -0.0249557 1.3921 
1 0.177657 0.313063 -0.439904 
2 -0.450693 0.466013 -0.0537516 
1 -0.143593 -0.172951 0.0429002 
1 0.673573 -0.814318 0.279927 
2 0.857017 0.739604 0.135869 
1 -0.974517 -1.08824 -0.335742 
1 -0.0101243 0.377374 0.167789 
2 1.21845 0.0730268 -0.295408 
1 -0.527775 -0.443525 0.809608 
1 -0.622695 0.11222 -0.216315 
2 2.25336 -1.65251 0.979752 
1 -1.53247 1.06476 0.566626 
1 -0.934669 0.646784 -1.02993 
2 -1.34426 0.692994 -0.759681 
1 1.95805 -0.690175 0.579939 
1 -0.660064 0.0218901 0.366595 
2 -0.144309 -0.563146 0.813192 
1 0.15798 -0.309329 -0.27939 
1 0.120821 1.01024 -0.904083 
2 -0.741562 -1.14541 -1.21199 
1 0.283874 -0.222327 1.0464 
1 0.176262 0.404658 0.172818 
2 0.372922 -0.111606 0.00840365 
1 -0.0331913 -0.332878 -0.729803 
1 -0.0232253 0.708224 0.467347 
2 0.430197 0.655332 0.381832 
1 0.218027 0.192257 -0.211829 
1 -0.391977 -0.797212 -0.31976 
2 -0.629964 -0.282743 -0.60215 
1 -0.0455312 0.170977 -0.401316 
1 0.895226 0.0252112 0.949861 
2 0.836968 1.17498 0.43566 
1 -0.371458 -1.10312 -0.524136 
1 -1.10582 0.0499959 -0.0292199 
2 -0.916224 -0.894033 -1.30457 
1 0.572616 0.280081 0.720305 
1 0.159847 0.818987 0.922716 
2 -0.400589 1.08767 -0.898023 
1 0.0148567 -0.303144 0.892031 