192
Atoms. Timestep: 0
2 2.97049 11.0216 5.3254
1 2.48369 11.6456 4.77414
1 3.73446 11.4123 5.80075
2 11.2936 11.194 0.0867684
1 10.4066 10.9266 0.348293
1 11.4491 10.5991 11.7094
2 10.2055 7.99503 7.52178
1 9.77937 7.30295 8.0675
1 9.46496 8.18725 6.77914
2 5.79708 4.24972 5.14756
1 5.7612 5.26136 4.98327
1 6.41229 4.02165 4.43269
2 3.80174 4.31112 1.06776
1 4.57058 4.61819 1.67588
1 3.8759 4.94429 0.266318
2 3.9124 9.89469 8.72825
1 4.34573 10.7449 8.48906
1 2.9833 10.195 8.48505
2 8.33932 3.75908 3.42831
1 9.20679 4.07634 3.82295
1 8.50852 3.03919 2.65657
2 0.717445 3.9021 9.63093
1 1.28628 3.98573 8.90638
1 12.3631 3.66339 9.14285
2 2.52307 4.428 7.45117
1 2.89943 5.36692 7.40051
1 2.72603 4.04104 6.57713
2 10.4028 11.8077 5.55671
1 9.61625 12.3522 5.62652
1 10.5574 11.4461 6.45205
2 3.64454 11.9349 0.442438
1 3.27556 11.2102 12.3045
1 2.93027 0.24166 0.492629
2 5.50367 8.18363 11.0828
1 6.2577 7.92308 10.496
1 5.85987 8.47687 11.9274
2 7.19082 3.16644 10.5947
1 6.55125 3.46458 9.90033
1 6.61592 2.8479 11.3376
2 5.27167 1.92181 12.3964
1 4.69108 1.18638 12.3346
1 4.69164 2.68217 0.350095
2 5.04773 11.8695 6.75585
1 5.72407 11.2248 7.01858
1 5.26679 0.312344 7.20433
2 0.549361 10.0612 2.19768
1 1.01592 10.7772 2.72462
1 0.129684 10.4128 1.35237
2 11.3903 1.05521 9.84945
1 11.5733 0.201241 9.48128
1 10.8741 1.50127 9.07291
2 9.47171 9.23327 4.61542
1 10.2676 8.86554 4.19356
1 9.76733 10.0654 5.0656
2 4.26769 6.9918 7.66425
1 4.00663 7.6371 6.9413
1 4.17046 7.56016 8.49707
2 7.38425 8.26989 7.11545
1 6.6786 7.8822 7.67362
1 7.6158 9.07142 7.68894
2 0.140641 7.32863 0.200041
1 0.797994 7.57296 0.80137
1 0.716187 7.17386 11.8379
2 5.78117 2.19893 7.52434
1 5.53099 2.82591 6.81833
1 5.23075 2.46476 8.30834
2 7.96678 10.4507 8.74581
1 7.17051 10.5324 9.32107
1 8.3342 11.3146 8.50817
2 12.0817 9.49356 10.3119
1 11.6871 8.69004 10.7065
1 0.589553 9.60842 10.6535
2 1.22896 4.02155 1.9215
1 2.14662 4.09915 1.61574
1 0.729636 4.41182 1.20521
2 8.08377 5.70013 12.1746
1 8.02457 4.84915 11.6825
1 8.95593 5.71883 0.192918
2 4.06973 1.77494 3.28163
1 4.57001 2.33043 2.66012
1 4.69245 0.99099 3.60653
2 9.21267 9.05101 11.0554
1 8.78888 9.88252 10.9036
1 8.86719 8.48868 10.3161
2 11.2783 2.77536 0.258693
1 11.0333 2.46668 11.79
1 10.8917 3.70061 0.257057
2 8.2016 1.63242 1.56821
1 7.26718 1.6865 1.21425
1 8.08399 0.8563 2.1817
2 3.24825 7.90398 5.25666
1 3.99758 7.5729 4.62371
1 3.10063 8.83946 5.09575
2 5.82643 12.3701 3.78025
1 6.38213 11.835 3.11859
1 5.87093 11.8064 4.67595
2 2.76294 9.67346 11.4194
1 3.30241 9.76208 10.5906
1 2.97214 8.79465 11.6706
2 6.66831 9.44541 4.63648
1 7.65953 9.49313 4.48174
1 6.65128 9.25196 5.62795
2 8.6987 12.1812 11.285
1 9.63881 12.3189 11.0238
1 8.58057 0.402333 11.987
2 11.8703 1.23419 3.64296
1 11.556 0.956184 4.49269
1 11.4325 0.765192 2.88949
2 11.2663 10.9478 8.02793
1 11.0167 10.0307 8.35525
1 12.236 10.9186 7.90848
2 8.95005 8.94721 1.47286
1 9.21496 8.94277 0.556929
1 9.6785 8.5127 1.96225
2 0.568579 1.50726 6.25688
1 1.02991 1.55398 7.11448
1 1.14015 2.07076 5.69868
2 2.71929 7.75366 1.94473
1 3.52354 7.50709 1.48817
1 2.67355 8.72951 2.11609
2 8.23172 1.40609 5.55105
1 7.56763 1.32583 6.23281
1 8.05312 2.18193 5.00722
2 3.79837 6.07786 11.3439
1 4.5056 6.78859 11.2477
1 2.98194 6.4187 10.9118
2 11.1342 4.56836 3.60252
1 11.82 5.28154 3.70303
1 11.6252 3.71317 3.54581
2 11.2173 8.20541 2.92924
1 11.9632 8.85966 2.59925
1 11.6486 7.4352 3.36891
2 8.49343 0.823999 8.49793
1 7.75153 1.42365 8.63624
1 8.65125 0.7739 9.47167
2 0.729415 7.29272 7.47056
1 12.2368 7.39412 7.01265
1 1.41045 7.52484 6.78992
2 5.69654 11.0702 10.7064
1 5.58778 11.666 11.4826
1 5.4388 10.1632 10.9983
2 7.8937 7.31308 9.78899
1 8.03027 6.72249 10.5365
1 7.67876 6.70541 8.98833
2 8.17039 11.4741 2.86316
1 8.6619 11.519 3.70521
1 8.57801 10.5988 2.50195
2 1.51214 10.9738 7.74837
1 1.73005 10.9433 6.76367
1 1.76692 11.8074 8.11373
2 10.7758 2.72225 7.64003
1 11.5828 2.36317 7.17204
1 10.0894 2.42928 6.99027
2 2.07301 1.6255 0.000299719
1 2.31592 2.47299 0.417547
1 1.10882 1.69853 0.0565154
2 10.8408 5.43014 0.715073
1 11.0109 5.35655 1.67396
1 11.518 6.16647 0.56539
2 2.40312 3.18202 4.98647
1 1.89773 3.41262 4.13551
1 3.06702 2.50375 4.67644
2 0.758265 6.62386 3.89237
1 1.24837 6.6832 3.08279
1 1.33206 6.91647 4.64857
2 5.58064 7.1014 3.9435
1 5.92627 6.66295 3.12716
1 6.20322 7.82972 4.19823
2 4.12017 10.2374 2.42444
1 3.68022 10.9879 2.01406
1 3.73309 10.3721 3.32004
2 1.95237 12.3862 3.19908
1 2.68017 0.585611 2.93338
1 1.12116 0.534719 3.12643
2 6.69014 5.33222 8.31998
1 5.81276 5.6848 8.11106
1 7.13917 5.07696 7.46209
2 6.24756 8.56543 1.29029
1 5.87188 9.13414 1.97294
1 7.26352 8.51764 1.39924
2 4.08128 3.16509 9.5824
1 4.1698 3.40749 10.5332
1 3.63206 3.89434 9.11732
2 6.2433 5.53729 1.82831
1 6.89599 5.9261 1.21043
1 6.78202 5.00691 2.49373
2 1.23593 6.65337 10.1954
1 0.82126 5.78238 10.0389
1 1.45758 7.03255 9.41236
2 1.72948 1.27651 8.67338
1 0.874977 1.44901 9.15012
1 2.5056 1.76644 8.97919
192
Atoms. Timestep: 4
2 2.97252 11.0228 5.33558
1 2.47052 11.6543 4.75094
1 3.73045 11.4621 5.79516
2 11.2976 11.1865 0.0804806
1 10.4181 10.8981 0.348563
1 11.469 10.5782 11.6879
2 10.1988 7.9874 7.52026
1 9.74586 7.2841 8.02371
1 9.53642 8.21762 6.78001
2 5.80547 4.2594 5.13701
1 5.79781 5.26485 5.0238
1 6.46468 3.99981 4.4746
2 3.79731 4.29941 1.05822
1 4.56422 4.56384 1.68299
1 3.83911 4.92717 0.282692
2 3.90896 9.90462 8.73633
1 4.38825 10.7479 8.45564
1 2.98628 10.1836 8.44355
2 8.346 3.76853 3.44041
1 9.16994 4.10508 3.83907
1 8.52581 3.05827 2.72168
2 0.724422 3.89374 9.64259
1 1.30479 3.97729 8.84509
1 12.3123 3.64552 9.17744
2 2.51868 4.43703 7.44686
1 2.86168 5.31338 7.44066
1 2.75744 4.04129 6.58609
2 10.3927 11.8018 5.56261
1 9.60035 12.4054 5.61429
1 10.5419 11.4145 6.48461
2 3.64096 11.938 0.4362
1 3.26758 11.1699 12.3029
1 2.91156 0.241266 0.446402
2 5.49871 8.1864 11.083
1 6.25094 7.95328 10.5125
1 5.85022 8.5023 11.9135
2 7.18012 3.17522 10.5907
1 6.58091 3.49113 9.87329
1 6.57952 2.86922 11.3444
2 5.2618 1.93166 12.3954
1 4.63989 1.1593 12.3258
1 4.69313 2.68533 0.369702
2 5.0458 11.8716 6.74542
1 5.7335 11.1925 7.01548
1 5.23334 0.34054 7.24114
2 0.548221 10.0529 2.19389
1 0.974528 10.8202 2.66527
1 0.106577 10.4087 1.41054
2 11.3991 1.06769 9.86059
1 11.6262 0.193426 9.51747
1 10.8835 1.54422 9.10993
2 9.46271 9.24572 4.61004
1 10.2897 8.85027 4.21927
1 9.75121 10.1046 5.07019
2 4.27964 7.00458 7.67799
1 4.0466 7.57845 6.96859
1 4.20015 7.59487 8.45357
2 7.3891 8.28243 7.1279
1 6.72114 7.87436 7.69996
1 7.67013 9.04388 7.66278
2 0.137717 7.33752 0.192295
1 0.774472 7.62453 0.871262
1 0.676575 7.13927 11.8416
2 5.77862 2.1864 7.53379
1 5.57832 2.80421 6.84837
1 5.23 2.45854 8.32415
2 7.96546 10.4418 8.73736
1 7.19891 10.5052 9.34383
1 8.34906 11.2856 8.53547
2 12.074 9.50335 10.3108
1 11.6782 8.67186 10.7001
1 0.568843 9.61882 10.6887
2 1.22315 4.01064 1.91944
1 2.12647 4.05683 1.65903
1 0.6802 4.39029 1.22132
2 8.07926 5.7106 12.1645
1 8.0136 4.85956 11.6623
1 8.96376 5.76013 0.224388
2 4.08083 1.77388 3.28361
1 4.53558 2.29664 2.61294
1 4.73046 1.00387 3.55875
2 9.20175 9.05052 11.0567
1 8.77804 9.89223 10.9085
1 8.87191 8.51178 10.2833
2 11.2841 2.77997 0.263363
1 11.0033 2.4926 11.8149
1 10.9299 3.65971 0.231535
2 8.19167 1.64278 1.56722
1 7.28792 1.74335 1.23753
1 8.10811 0.887367 2.16841
2 3.26034 7.91534 5.254
1 4.00865 7.58308 4.59255
1 3.08963 8.85388 5.13067
2 5.83371 12.3735 3.78433
1 6.41178 11.8289 3.13242
1 5.86465 11.8423 4.6606
2 2.76823 9.67865 11.4115
1 3.31066 9.71073 10.5653
1 2.92885 8.78226 11.6716
2 6.67943 9.44436 4.63626
1 7.61143 9.53924 4.43293
1 6.63681 9.25119 5.57546
2 8.6929 12.1864 11.2804
1 9.60369 12.3189 11.0784
1 8.55822 0.388065 11.9789
2 11.8708 1.23966 3.63442
1 11.5217 0.89707 4.52148
1 11.4174 0.772925 2.88658
2 11.2602 10.9463 8.03542
1 11.0716 10.065 8.37146
1 12.2773 10.8648 7.87057
2 8.94997 8.93411 1.46799
1 9.20048 8.88743 0.515182
1 9.68543 8.52655 2.01249
2 0.564421 1.50606 6.26062
1 1.04111 1.59661 7.11256
1 1.15539 2.11531 5.70295
2 2.71742 7.76637 1.9435
1 3.56977 7.47894 1.49488
1 2.71603 8.70503 2.09751
2 8.24525 1.39894 5.54969
1 7.52593 1.36826 6.26644
1 8.0864 2.17372 4.97224
2 3.78655 6.06902 11.3327
1 4.48637 6.78886 11.2426
1 3.01037 6.45912 10.93
2 11.1372 4.564 3.61367
1 11.7924 5.2412 3.72337
1 11.6027 3.70213 3.50663
2 11.2074 8.20045 2.93825
1 11.8929 8.84756 2.56883
1 11.6845 7.47033 3.38033
2 8.4883 0.82837 8.49338
1 7.70393 1.45881 8.62224
1 8.64585 0.790207 9.4319
2 0.729009 7.28524 7.47309
1 12.2864 7.43554 7.06831
1 1.41232 7.50315 6.79292
2 5.70261 11.0642 10.6951
1 5.58479 11.6902 11.4494
1 5.47295 10.2145 11.0187
2 7.90496 7.3129 9.77898
1 8.01223 6.68237 10.538
1 7.6675 6.68692 8.99395
2 8.17295 11.4676 2.86011
1 8.65961 11.4996 3.6883
1 8.5797 10.6054 2.53487
2 1.52022 10.9812 7.75448
1 1.73663 10.9153 6.77
1 1.78059 11.8005 8.11902
2 10.7687 2.72747 7.63661
1 11.5593 2.32593 7.18201
1 10.1084 2.4677 6.99783
2 2.08505 1.63295 0.000675937
1 2.28638 2.44203 0.411182
1 1.08461 1.702 0.0539302
2 10.8453 5.42343 0.726429
1 10.9511 5.39203 1.71853
1 11.5398 6.13507 0.512657
2 2.39308 3.17452 4.9914
1 1.9388 3.44592 4.14188
1 3.09746 2.50638 4.68229
2 0.768321 6.60983 3.90555
1 1.23381 6.67029 3.09608
1 1.35203 6.94826 4.65668
2 5.57668 7.08934 3.93878
1 5.87815 6.65731 3.09561
1 6.21557 7.82494 4.23977
2 4.12997 10.2251 2.41772
1 3.66517 11.036 2.03289
1 3.79048 10.3166 3.32899
2 1.9648 12.3912 3.20791
1 2.67113 0.608456 2.88712
1 1.14069 0.49257 3.08774
2 6.68125 5.33643 8.30647
1 5.81129 5.64937 8.10406
1 7.07798 5.04874 7.44762
2 6.23736 8.56102 1.27911
1 5.9048 9.14241 1.95394
1 7.24193 8.52393 1.38064
2 4.09019 3.15491 9.57139
1 4.15541 3.44015 10.5244
1 3.6677 3.87276 9.12953
2 6.23565 5.52603 1.83671
1 6.87535 5.95974 1.19709
1 6.75775 5.03431 2.49044
2 1.2338 6.63861 10.2003
1 0.784706 5.75334 9.9972
1 1.41966 7.03057 9.30763
2 1.74065 1.28002 8.68417
1 0.892578 1.42242 9.20013
1 2.4622 1.7647 9.04553
192
Atoms. Timestep: 8
2 2.97296 11.0233 5.34516
1 2.47428 11.6612 4.72847
1 3.72203 11.5131 5.77974
2 11.3022 11.1771 0.0717265
1 10.4248 10.872 0.351988
1 11.4836 10.5837 11.697
2 10.1901 7.97955 7.51656
1 9.71637 7.28162 7.97752
1 9.64232 8.23715 6.81197
2 5.8139 4.27214 5.12692
1 5.82362 5.2336 5.0648
1 6.52598 3.96802 4.51243
2 3.79605 4.28717 1.05011
1 4.51758 4.51398 1.64286
1 3.80767 4.9215 0.299225
2 3.90442 9.91801 8.74273
1 4.41798 10.7012 8.44857
1 3.0099 10.1471 8.40731
2 8.35122 3.77602 3.45115
1 9.15039 4.12748 3.83674
1 8.54391 3.10991 2.8231
2 0.730408 3.88549 9.65238
1 1.34285 3.97634 8.78351
1 12.2548 3.63131 9.23128
2 2.51384 4.44328 7.44356
1 2.84262 5.31703 7.47783
1 2.77944 4.03982 6.58691
2 10.3811 11.7955 5.56888
1 9.60354 0.0315982 5.61628
1 10.5332 11.4054 6.50534
2 3.63458 11.9419 0.429278
1 3.27247 11.1593 12.3195
1 2.92184 0.206323 0.389628
2 5.49169 8.18943 11.0805
1 6.26293 7.97869 10.5273
1 5.85787 8.52487 11.9535
2 7.16749 3.18393 10.5877
1 6.62624 3.51798 9.86132
1 6.55829 2.89211 11.3146
2 5.25019 1.94331 12.3957
1 4.60096 1.14074 12.3218
1 4.71866 2.66061 0.373256
2 5.04631 11.8752 6.73787
1 5.72557 11.2017 6.99909
1 5.2036 0.323001 7.24338
2 0.548751 10.0453 2.19107
1 0.92471 10.8446 2.59215
1 0.0738175 10.4186 1.4541
2 11.4064 1.0825 9.87038
1 11.6654 0.168622 9.5373
1 10.9203 1.56181 9.17124
2 9.45443 9.26046 4.6073
1 10.2949 8.84691 4.23954
1 9.73519 10.1116 5.05303
2 4.29259 7.01564 7.69593
1 4.0718 7.54248 6.93411
1 4.2299 7.62429 8.40732
2 7.39276 8.29394 7.13963
1 6.75822 7.8685 7.71361
1 7.72936 9.03728 7.65347
2 0.134404 7.34762 0.186902
1 0.748353 7.67422 0.939588
1 0.65705 7.09569 11.8043
2 5.77574 2.17178 7.54689
1 5.6187 2.8117 6.84118
1 5.24136 2.447 8.3197
2 7.96228 10.4282 8.72837
1 7.2369 10.5065 9.36735
1 8.36274 11.3058 8.5646
2 12.0677 9.51212 10.3122
1 11.6935 8.69161 10.6774
1 0.512894 9.61027 10.7074
2 1.21383 3.99918 1.91901
1 2.15872 4.03627 1.68655
1 0.633813 4.35937 1.23843
2 8.07595 5.72113 12.1547
1 8.00885 4.87595 11.6632
1 8.94839 5.7838 0.226185
2 4.09244 1.77073 3.28652
1 4.50463 2.25917 2.56555
1 4.7567 1.05019 3.48991
2 9.19209 9.04951 11.0588
1 8.7653 9.92763 10.9099
1 8.88376 8.54728 10.2732
2 11.2906 2.78163 0.268165
1 10.9749 2.48783 11.8093
1 10.9654 3.68689 0.233007
2 8.18191 1.65376 1.5656
1 7.29304 1.80859 1.25567
1 8.1391 0.89595 2.16525
2 3.27421 7.92377 5.24991
1 3.9733 7.63023 4.60031
1 3.09192 8.88574 5.14934
2 5.84272 12.3732 3.78996
1 6.41286 11.8494 3.19819
1 5.85729 11.9098 4.5835
2 2.77419 9.68498 11.4004
1 3.29972 9.66853 10.5622
1 2.88988 8.74314 11.6949
2 6.68801 9.44409 4.63495
1 7.59034 9.58116 4.38468
1 6.6352 9.24291 5.54841
2 8.68563 12.1906 11.275
1 9.62419 12.3153 11.1198
1 8.5167 0.402206 12.0061
2 11.8703 1.2444 3.62626
1 11.5017 0.838861 4.503
1 11.405 0.794799 2.92735
2 11.2572 10.9461 8.0414
1 11.111 10.0757 8.40035
1 12.2704 10.8235 7.83922
2 8.95128 8.92082 1.46389
1 9.18586 8.82808 0.47187
1 9.67761 8.54326 2.04643
2 0.561309 1.50721 6.26273
1 1.05384 1.62393 7.12283
1 1.13522 2.136 5.72431
2 2.716 7.77427 1.94002
1 3.5685 7.48672 1.533
1 2.78668 8.71144 2.07767
2 8.25681 1.39154 5.55059
1 7.53145 1.42233 6.25105
1 8.11744 2.15768 4.94614
2 3.77811 6.05992 11.3226
1 4.45837 6.77 11.246
1 2.99444 6.49627 10.9315
2 11.1378 4.55686 3.62428
1 11.8095 5.22664 3.75746
1 11.5754 3.7078 3.4662
2 11.1976 8.19607 2.94599
1 11.8101 8.81919 2.5643
1 11.7376 7.51144 3.38827
2 8.47867 0.836552 8.48901
1 7.69049 1.46331 8.56591
1 8.67227 0.782496 9.43404
2 0.732174 7.27747 7.47479
1 12.3091 7.48356 7.12052
1 1.39364 7.47715 6.81374
2 5.70973 11.0629 10.6831
1 5.58749 11.6892 11.3986
1 5.49178 10.2158 11.0599
2 7.9144 7.30768 9.76539
1 7.9937 6.65196 10.5393
1 7.67207 6.70255 9.05978
2 8.17771 11.4584 2.85573
1 8.65533 11.5086 3.69956
1 8.55249 10.6335 2.54911
2 1.5275 10.9832 7.75746
1 1.75126 10.9024 6.8082
1 1.80649 11.8688 8.13719
2 10.7642 2.73218 7.63279
1 11.5333 2.29691 7.19464
1 10.0913 2.50126 7.00374
2 2.09227 1.63792 12.4168
1 2.28333 2.46861 0.438754
1 1.09401 1.69095 0.0440567
2 10.8508 5.41803 0.739987
1 10.8743 5.41189 1.73751
1 11.5421 6.09726 0.454948
2 2.38405 3.16553 4.99347
1 1.99864 3.4742 4.1785
1 3.09816 2.54572 4.68551
2 0.776889 6.59581 3.92446
1 1.26956 6.66361 3.06394
1 1.36115 6.96588 4.61459
2 5.57389 7.0774 3.93599
1 5.82136 6.67182 3.06848
1 6.19887 7.80005 4.2491
2 4.13668 10.2148 2.41234
1 3.68791 11.0547 2.03315
1 3.87022 10.2477 3.34563
2 1.97786 12.3972 3.2152
1 2.65306 0.613991 2.85486
1 1.15254 0.451974 3.07204
2 6.67542 5.33952 8.29251
1 5.77229 5.63385 8.08202
1 7.00324 5.02323 7.44785
2 6.22973 8.55409 1.26549
1 5.92705 9.17414 1.96392
1 7.18252 8.54464 1.36694
2 4.10068 3.14266 9.56449
1 4.13885 3.4593 10.4798
1 3.67688 3.89515 9.10949
2 6.22861 5.51537 1.8444
1 6.82999 5.96739 1.20246
1 6.751 5.05906 2.48142
2 1.23112 6.62261 10.2044
1 0.774215 5.7494 9.96049
1 1.3612 7.0263 9.21442
2 1.74848 1.2812 8.69428
1 0.94796 1.40344 9.25232
1 2.44364 1.79108 9.14545
192
Atoms. Timestep: 12
2 2.97151 11.0245 5.35319
1 2.50337 11.6483 4.72159
1 3.707 11.5555 5.75579
2 11.3067 11.1667 0.0620678
1 10.4364 10.8488 0.354533
1 11.4925 10.6019 11.7198
2 10.1857 7.97045 7.51634
1 9.67814 7.27991 7.93867
1 9.69862 8.27864 6.77763
2 5.82342 4.28243 5.11701
1 5.84415 5.23303 5.09127
1 6.57595 3.94585 4.56389
2 3.79373 4.27256 1.04128
1 4.49008 4.49106 1.60654
1 3.78373 4.93621 0.30372
2 3.89965 9.93159 8.74873
1 4.44367 10.6381 8.45766
1 3.02888 10.1042 8.36801
2 8.35218 3.78605 3.46506
1 9.17351 4.15896 3.8341
1 8.58405 3.10768 2.87007
2 0.736037 3.87724 9.65542
1 1.33774 3.9729 8.78833
1 12.2445 3.63334 9.31336
2 2.50817 4.44563 7.44105
1 2.84891 5.38686 7.50644
1 2.79002 4.04623 6.58783
2 10.3673 11.7894 5.57619
1 9.64131 0.0469771 5.63512
1 10.5271 11.4275 6.49806
2 3.62755 11.9448 0.421886
1 3.29014 11.1695 12.347
1 2.92879 0.173004 0.328185
2 5.48453 8.19414 11.0793
1 6.29179 7.99779 10.5383
1 5.85507 8.51735 11.9844
2 7.15525 3.19234 10.5862
1 6.66487 3.55521 9.84109
1 6.53788 2.91035 11.2663
2 5.23701 1.95178 12.396
1 4.60639 1.16527 12.3238
1 4.73753 2.64654 0.377934
2 5.04808 11.8798 6.73235
1 5.7124 11.2429 6.97265
1 5.18489 0.274252 7.22108
2 0.550793 10.0376 2.18897
1 0.888509 10.8668 2.53524
1 0.0162124 10.4402 1.45528
2 11.4149 1.09489 9.88107
1 11.6733 0.178962 9.55223
1 10.9564 1.57256 9.20995
2 9.44762 9.27612 4.60638
1 10.2707 8.86201 4.25876
1 9.72321 10.1015 5.02403
2 4.30639 7.02283 7.71397
1 4.08545 7.52117 6.85084
1 4.25513 7.69069 8.4093
2 7.39611 8.30404 7.14881
1 6.77657 7.86382 7.73029
1 7.78767 9.05775 7.66937
2 0.133484 7.35943 0.184843
1 0.687902 7.69377 0.938044
1 0.649599 7.06093 11.7703
2 5.77333 2.15596 7.56039
1 5.6553 2.82719 6.82434
1 5.25109 2.43956 8.31564
2 7.95901 10.4134 8.71815
1 7.27348 10.5292 9.39736
1 8.3606 11.3306 8.59915
2 12.0604 9.52117 10.3134
1 11.7088 8.7136 10.6529
1 0.48445 9.59553 10.7307
2 1.20375 3.98698 1.92024
1 2.19062 4.04132 1.69944
1 0.605801 4.31889 1.25394
2 8.07344 5.73258 12.1455
1 8.0106 4.88423 11.6786
1 8.91362 5.78787 0.198257
2 4.1035 1.76767 3.28897
1 4.47267 2.22741 2.51708
1 4.78954 1.09114 3.42663
2 9.18261 9.05182 11.0622
1 8.77598 9.94226 10.9195
1 8.8952 8.57889 10.2727
2 11.2968 2.78076 0.270967
1 10.9585 2.46651 11.8094
1 11.0033 3.75927 0.258308
2 8.17417 1.66545 1.56366
1 7.26486 1.87454 1.26712
1 8.16496 0.885488 2.16694
2 3.28683 7.9325 5.24654
1 3.93469 7.69244 4.60928
1 3.1104 8.9052 5.15943
2 5.85117 12.3761 3.79125
1 6.42533 11.8616 3.25832
1 5.84593 11.93 4.59379
2 2.7805 9.68819 11.3887
1 3.2826 9.6384 10.5658
1 2.8466 8.74555 11.7178
2 6.69213 9.44515 4.63
1 7.61617 9.6174 4.34179
1 6.65414 9.2221 5.58426
2 8.67808 12.1959 11.2709
1 9.66918 12.3065 11.1562
1 8.46789 0.407297 12.0255
2 11.869 1.24851 3.62288
1 11.511 0.801744 4.42502
1 11.3713 0.806273 2.95485
2 11.2584 10.9473 8.04534
1 11.1231 10.0498 8.45118
1 12.2132 10.8107 7.81492
2 8.95427 8.9074 1.45807
1 9.16579 8.76926 0.474787
1 9.6506 8.56126 2.05171
2 0.559904 1.51068 6.26515
1 1.05226 1.6286 7.12515
1 1.08496 2.13648 5.75043
2 2.71456 7.77812 1.93484
1 3.53925 7.51218 1.58819
1 2.87467 8.75676 2.06489
2 8.26647 1.38474 5.55279
1 7.57735 1.47994 6.19863
1 8.1505 2.12882 4.9331
2 3.77011 6.0502 11.3129
1 4.44796 6.75503 11.2563
1 2.95434 6.51247 10.9279
2 11.1357 4.54914 3.63463
1 11.8611 5.22803 3.80047
1 11.5572 3.70613 3.42251
2 11.1854 8.18869 2.95456
1 11.762 8.8286 2.55406
1 11.8017 7.55007 3.3966
2 8.46554 0.847785 8.48536
1 7.71224 1.43578 8.48578
1 8.7129 0.765627 9.45508
2 0.739147 7.26821 7.4792
1 12.2638 7.54714 7.15102
1 1.39195 7.45869 6.81373
2 5.71774 11.0629 10.669
1 5.59168 11.6984 11.364
1 5.50002 10.1894 11.1048
2 7.92355 7.29909 9.75459
1 7.97772 6.66391 10.5263
1 7.6682 6.69452 9.09647
2 8.18316 11.4502 2.85224
1 8.64321 11.5439 3.72386
1 8.52697 10.6241 2.52452
2 1.53503 10.9853 7.76222
1 1.78226 10.9086 6.84019
1 1.81667 11.9207 8.12701
2 10.7619 2.73699 7.6294
1 11.514 2.27231 7.20265
1 10.0351 2.52653 7.00209
2 2.09577 1.64302 12.4156
1 2.29226 2.50898 0.476258
1 1.13123 1.66895 0.0275708
2 10.8561 5.41308 0.754992
1 10.7974 5.42527 1.72769
1 11.5289 6.06377 0.412079
2 2.37707 3.15518 4.9967
1 2.04282 3.5195 4.18825
1 3.08998 2.59618 4.68361
2 0.785764 6.58164 3.94193
1 1.30111 6.65584 3.06272
1 1.38082 6.98365 4.56246
2 5.57118 7.06527 3.93515
1 5.76678 6.70465 3.04826
1 6.16505 7.75821 4.22327
2 4.14083 10.207 2.40713
1 3.7486 11.0276 2.03861
1 3.9599 10.1796 3.36507
2 1.99253 12.4032 3.22096
1 2.6344 0.606446 2.83643
1 1.13322 0.428229 3.07681
2 6.66898 5.34278 8.27945
1 5.73111 5.63059 8.06219
1 6.94005 4.98819 7.43004
2 6.21922 8.54723 1.25189
1 5.94462 9.19789 1.96347
1 7.16835 8.56863 1.3601
2 4.1107 3.13077 9.55803
1 4.12927 3.46945 10.446
1 3.68056 3.91662 9.07279
2 6.21973 5.50629 1.84993
1 6.77465 5.95755 1.21719
1 6.78681 5.05918 2.49759
2 1.2284 6.60765 10.2014
1 0.78959 5.76179 9.94122
1 1.2748 6.99244 9.21921
2 1.75669 1.28214 8.70535
1 1.00032 1.38784 9.31149
1 2.431 1.8176 9.2458
192
Atoms. Timestep: 16
2 2.96896 11.0262 5.36013
1 2.5412 11.6245 4.71648
1 3.68945 11.5828 5.73043
2 11.3103 11.1574 0.0543866
1 10.4526 10.8256 0.355481
1 11.5047 10.5996 11.7142
2 10.1858 7.96088 7.51877
1 9.62366 7.27217 7.90806
1 9.71195 8.33589 6.68846
2 5.83409 4.28849 5.10751
1 5.86469 5.27887 5.09748
1 6.61118 3.94406 4.62927
2 3.78738 4.25553 1.02899
1 4.52719 4.5094 1.61382
1 3.76644 4.96196 0.302339
2 3.89377 9.94084 8.75626
1 4.49401 10.6132 8.459
1 3.02636 10.0717 8.31765
2 8.35049 3.79948 3.483
1 9.21506 4.19224 3.82286
1 8.64365 3.04893 2.85696
2 0.742287 3.86944 9.65355
1 1.28464 3.96261 8.84987
1 12.2703 3.64574 9.40388
2 2.50388 4.45063 7.44011
1 2.84546 5.41244 7.51655
1 2.79058 4.06469 6.58972
2 10.3525 11.7831 5.58306
1 9.69001 0.0525804 5.66942
1 10.5276 11.4672 6.48352
2 3.6226 11.9464 0.415297
1 3.311 11.1658 12.3638
1 2.90078 0.175977 0.265342
2 5.47944 8.20076 11.0802
1 6.31498 8.01387 10.5563
1 5.82986 8.46818 11.9823
2 7.14543 3.20115 10.5847
1 6.69337 3.60348 9.80916
1 6.48991 2.91271 11.2315
2 5.22494 1.9561 12.3952
1 4.64198 1.21487 12.3278
1 4.72495 2.67588 0.39881
2 5.04788 11.884 6.72552
1 5.73426 11.2713 6.95114
1 5.18613 0.259403 7.21109
2 0.551827 10.0314 2.18428
1 0.879524 10.8969 2.50828
1 12.3771 10.4437 1.45029
2 11.426 1.10321 9.89512
1 11.6514 0.225943 9.56044
1 10.9667 1.59918 9.18994
2 9.44054 9.29087 4.60652
1 10.2421 8.87978 4.26222
1 9.72519 10.1189 5.00607
2 4.3196 7.03017 7.72947
1 4.10606 7.47764 6.79876
1 4.27834 7.77003 8.4205
2 7.40026 8.31451 7.1565
1 6.78022 7.86612 7.75181
1 7.82107 9.07197 7.69141
2 0.133697 7.37114 0.181676
1 0.625782 7.69359 0.893368
1 0.640036 7.04972 11.7737
2 5.77219 2.14075 7.57024
1 5.69267 2.81785 6.83773
1 5.2455 2.44529 8.33241
2 7.95649 10.4012 8.70727
1 7.30804 10.5599 9.43014
1 8.3341 11.3205 8.63298
2 12.0524 9.53239 10.3131
1 11.6981 8.69462 10.6429
1 0.509399 9.58393 10.7643
2 1.19662 3.97361 1.92363
1 2.17088 4.07071 1.70351
1 0.592615 4.27625 1.25512
2 8.06919 5.74532 12.1357
1 8.01255 4.87179 11.6966
1 8.90393 5.78084 0.168899
2 4.11357 1.76685 3.28923
1 4.42969 2.2027 2.47923
1 4.84336 1.09687 3.38767
2 9.17361 9.05844 11.0681
1 8.81 9.9332 10.9399
1 8.89903 8.5924 10.2612
2 11.301 2.78147 0.271043
1 10.9593 2.44789 11.838
1 11.0611 3.78937 0.295801
2 8.16667 1.67725 1.56159
1 7.24305 1.92399 1.28834
1 8.17497 0.879924 2.15195
2 3.29491 7.94394 5.24703
1 3.94989 7.73771 4.56386
1 3.1395 8.90728 5.17059
2 5.85743 12.3836 3.79016
1 6.4837 11.8365 3.27446
1 5.82681 11.9066 4.69563
2 2.78554 9.6878 11.3786
1 3.27952 9.61955 10.5496
1 2.80082 8.79812 11.7332
2 6.69419 9.44742 4.62432
1 7.63539 9.63602 4.32575
1 6.70279 9.2021 5.61232
2 8.67368 12.204 11.269
1 9.67081 12.2904 11.2001
1 8.42543 0.382703 12.0091
2 11.8679 1.25274 3.62161
1 11.5356 0.771527 4.35575
1 11.3161 0.808528 2.94297
2 11.2597 10.9464 8.04957
1 11.1173 10.0479 8.50039
1 12.1642 10.8246 7.78481
2 8.95689 8.89475 1.44996
1 9.14531 8.71457 0.51475
1 9.62983 8.56413 2.04764
2 0.558245 1.51411 6.27014
1 1.03556 1.61017 7.11854
1 1.03884 2.15244 5.7478
2 2.71004 7.78471 1.93065
1 3.55865 7.51338 1.62351
1 2.9568 8.77925 2.05703
2 8.27797 1.37807 5.55297
1 7.59633 1.53654 6.17893
1 8.18945 2.10096 4.91716
2 3.75959 6.04069 11.3028
1 4.45885 6.75258 11.2712
1 2.93305 6.48798 10.937
2 11.1338 4.54401 3.64546
1 11.8967 5.19791 3.83776
1 11.5521 3.69487 3.37607
2 11.172 8.17748 2.96471
1 11.7465 8.8824 2.53518
1 11.8569 7.59232 3.39921
2 8.45455 0.857786 8.48463
1 7.70942 1.42255 8.40704
1 8.73671 0.758221 9.44141
2 0.744672 7.25855 7.48517
1 12.2279 7.60708 7.18722
1 1.40936 7.45044 6.78585
2 5.72573 11.0594 10.6544
1 5.59592 11.7313 11.3567
1 5.51321 10.1998 11.1164
2 7.93299 7.28953 9.74804
1 7.97023 6.71061 10.5182
1 7.6413 6.63407 9.06022
2 8.18921 11.4444 2.85094
1 8.61769 11.5872 3.72723
1 8.51389 10.5802 2.47648
2 1.54331 10.9902 7.77126
1 1.83441 10.9303 6.83766
1 1.80071 11.916 8.0782
2 10.7591 2.74152 7.62494
1 11.501 2.25096 7.19873
1 9.98667 2.55235 7.025
2 2.10004 1.65195 12.4162
1 2.28935 2.49622 0.487128
1 1.14567 1.64426 0.00813201
2 10.8598 5.40735 0.768844
1 10.7351 5.44139 1.71861
1 11.5094 6.04733 0.399599
2 2.37031 3.14549 5.00203
1 2.06315 3.58608 4.16697
1 3.111 2.62217 4.6682
2 0.795335 6.5668 3.95425
1 1.30242 6.64102 3.11238
1 1.42966 7.0181 4.5432
2 5.56585 7.05058 3.93545
1 5.72034 6.74536 3.02664
1 6.15569 7.74496 4.18192
2 4.14449 10.1978 2.40349
1 3.81584 11.0007 2.04717
1 4.05188 10.1285 3.3698
2 2.00614 12.4083 3.22569
1 2.63454 0.603638 2.822
1 1.10485 0.414547 3.10488
2 6.65922 5.34662 8.26632
1 5.72446 5.63231 8.05899
1 6.89475 4.94324 7.39723
2 6.20554 8.54212 1.2402
1 5.9549 9.19385 1.92765
1 7.20811 8.58855 1.35535
2 4.1183 3.12172 9.54864
1 4.13064 3.4787 10.4542
1 3.70173 3.89016 9.04175
2 6.20878 5.49597 1.85712
1 6.74004 5.95418 1.21024
1 6.83734 5.05599 2.50989
2 1.22559 6.59471 10.1924
1 0.813169 5.7543 9.94548
1 1.17891 6.95151 9.30107
2 1.76801 1.28494 8.71977
1 1.02682 1.36969 9.37384
1 2.4022 1.81695 9.30619
192
Atoms. Timestep: 20
2 2.96606 11.0271 5.36707
1 2.56493 11.6073 4.6893
1 3.67977 11.5935 5.71491
2 11.3132 11.1496 0.0490307
1 10.4661 10.7974 0.356063
1 11.5216 10.5725 11.6748
2 10.1857 7.95272 7.51798
1 9.5638 7.27347 7.87264
1 9.74566 8.36295 6.64752
2 5.8446 4.29455 5.09961
1 5.88581 5.30791 5.08319
1 6.65184 3.95687 4.69116
2 3.78091 4.23873 1.01529
1 4.56925 4.54693 1.61713
1 3.75587 4.97834 0.308005
2 3.88639 9.94601 8.76483
1 4.55132 10.6146 8.45188
1 3.02722 10.0562 8.2669
2 8.3507 3.81168 3.5009
1 9.24121 4.21278 3.79205
1 8.68366 3.02187 2.85952
2 0.749897 3.86262 9.65389
1 1.23555 3.95101 8.88281
1 12.2657 3.65095 9.47738
2 2.50163 4.4603 7.44134
1 2.82211 5.36488 7.50736
1 2.78263 4.09019 6.58483
2 10.3383 11.7757 5.5872
1 9.71032 0.0856474 5.71444
1 10.5461 11.5006 6.5007
2 3.61846 11.9491 0.409816
1 3.32935 11.1326 12.359
1 2.86973 0.192671 0.208978
2 5.47677 8.20816 11.081
1 6.31612 8.02737 10.5848
1 5.79103 8.39315 11.9763
2 7.13693 3.21099 10.5818
1 6.72573 3.64941 9.79278
1 6.41697 2.90294 11.203
2 5.21633 1.96237 12.3946
1 4.65046 1.22356 12.3289
1 4.70005 2.7205 0.416468
2 5.04555 11.8866 6.71658
1 5.79265 11.2777 6.93674
1 5.20622 0.3049 7.22476
2 0.550448 10.0293 2.17574
1 0.891336 10.9086 2.50079
1 12.3485 10.4129 1.4651
2 11.4372 1.1121 9.91117
1 11.6177 0.255957 9.54593
1 10.9727 1.62237 9.14765
2 9.43175 9.30532 4.60825
1 10.2367 8.88255 4.23541
1 9.73959 10.1703 5.00242
2 4.33183 7.04075 7.74354
1 4.13841 7.4101 6.81262
1 4.2991 7.81959 8.38795
2 7.40507 8.32586 7.16384
1 6.78346 7.88453 7.76792
1 7.81527 9.06132 7.70683
2 0.130305 7.38015 0.171723
1 0.628419 7.71214 0.89297
1 0.631883 7.06471 11.8149
2 5.77213 2.12631 7.57747
1 5.72661 2.78694 6.87733
1 5.23369 2.45821 8.35663
2 7.9536 10.3921 8.69746
1 7.34235 10.5813 9.45547
1 8.30277 11.2888 8.64914
2 12.0466 9.54357 10.3142
1 11.6775 8.67039 10.6325
1 0.528387 9.57084 10.7759
2 1.19211 3.95904 1.92943
1 2.11014 4.11959 1.69702
1 0.589446 4.23668 1.23903
2 8.06238 5.75827 12.1246
1 8.00849 4.8516 11.7157
1 8.9393 5.76992 0.15282
2 4.12419 1.76727 3.28705
1 4.3737 2.18695 2.45864
1 4.89521 1.08324 3.37683
2 9.16616 9.06587 11.0765
1 8.84424 9.94714 10.9628
1 8.89989 8.59594 10.2443
2 11.3045 2.78515 0.270799
1 10.9658 2.43356 11.8693
1 11.1308 3.75304 0.332044
2 8.15853 1.68927 1.55928
1 7.24888 1.94796 1.32732
1 8.16268 0.886984 2.11488
2 3.30091 7.95652 5.24908
1 3.98913 7.768 4.49606
1 3.17059 8.91341 5.18668
2 5.86338 12.3891 3.79289
1 6.555 11.8069 3.28268
1 5.80349 11.9141 4.74697
2 2.78882 9.68768 11.3691
1 3.29181 9.60946 10.5134
1 2.75752 8.83922 11.7604
2 6.69601 9.45033 4.62039
1 7.61984 9.63083 4.34319
1 6.77714 9.19132 5.58867
2 8.67263 12.2131 11.2676
1 9.62829 12.2719 11.2507
1 8.38662 0.349075 11.9784
2 11.866 1.25688 3.61591
1 11.5554 0.718055 4.36474
1 11.2762 0.835698 2.92563
2 11.257 10.9427 8.05591
1 11.1063 10.0991 8.53206
1 12.175 10.8514 7.7387
2 8.95709 8.88398 1.44206
1 9.13782 8.65856 0.536936
1 9.63634 8.53942 2.05398
2 0.554547 1.51624 6.27691
1 1.02132 1.57769 7.12556
1 1.0105 2.19513 5.71068
2 2.70479 7.79626 1.92739
1 3.61382 7.48186 1.64244
1 3.01072 8.75287 2.05155
2 8.29212 1.37106 5.55089
1 7.57432 1.59039 6.20442
1 8.23481 2.08324 4.88668
2 3.74819 6.03212 11.2926
1 4.46517 6.74444 11.2875
1 2.93292 6.43449 10.9549
2 11.1337 4.54054 3.65658
1 11.8989 5.12964 3.86359
1 11.5468 3.69637 3.33583
2 11.1612 8.16625 2.97426
1 11.7149 8.9232 2.54427
1 11.8901 7.63751 3.3947
2 8.44815 0.864392 8.48579
1 7.65825 1.44245 8.35028
1 8.72781 0.77447 9.39503
2 0.747202 7.25038 7.48958
1 12.2601 7.64286 7.24357
1 1.40518 7.44363 6.76936
2 5.73348 11.0548 10.6415
1 5.60576 11.7543 11.3407
1 5.52959 10.2431 11.0968
2 7.94079 7.27728 9.73907
1 7.97334 6.75213 10.5464
1 7.61955 6.58506 9.02652
2 8.19606 11.4384 2.84962
1 8.59125 11.6191 3.70557
1 8.50115 10.559 2.44405
2 1.55253 10.9964 7.78111
1 1.89461 10.9591 6.82693
1 1.771 11.8868 8.01862
2 10.755 2.74542 7.61919
1 11.4863 2.23638 7.17983
1 9.96789 2.5782 7.08104
2 2.10583 1.66331 0.000531371
1 2.27395 2.44789 0.481897
1 1.12417 1.62152 12.4047
2 10.8614 5.39961 0.779863
1 10.6945 5.46771 1.73274
1 11.4949 6.0609 0.421947
2 2.3629 3.13818 5.0054
1 2.08221 3.64297 4.17514
1 3.15191 2.62819 4.64278
2 0.80647 6.55242 3.96569
1 1.29324 6.61739 3.16004
1 1.47752 7.05208 4.54444
2 5.55726 7.03317 3.93661
1 5.68254 6.78319 2.99653
1 6.18147 7.77874 4.1359
2 4.14966 10.1826 2.40222
1 3.86165 11.0325 2.04711
1 4.14106 10.1099 3.35944
2 2.01612 12.4127 3.22958
1 2.65523 0.612278 2.80872
1 1.10503 0.403036 3.15701
2 6.64723 5.34959 8.25092
1 5.74283 5.6441 8.07307
1 6.86032 4.90479 7.38472
2 6.19469 8.5378 1.22987
1 5.94251 9.18555 1.87952
1 7.22434 8.59855 1.34155
2 4.12392 3.11559 9.5388
1 4.14091 3.47777 10.4667
1 3.7341 3.82767 9.01612
2 6.19794 5.48301 1.86805
1 6.72546 5.95602 1.18124
1 6.86584 5.07184 2.48558
2 1.22261 6.58189 10.1842
1 0.832085 5.69939 9.97473
1 1.08827 6.96275 9.34841
2 1.78075 1.28994 8.73957
1 1.03644 1.33949 9.41225
1 2.37279 1.79179 9.31517
192