ITEM: TIMESTEP
0
ITEM: NUMBER OF ATOMS
192
ITEM: BOX BOUNDS pp pp pp
0.0000000000000000e+00 1.2417099278418796e+01
0.0000000000000000e+00 1.2417099278418796e+01
0.0000000000000000e+00 1.2417099278418796e+01
ITEM: ATOMS type vx vy vz 
2 1.21656 1.16126 4.96896 
1 -6.79538 -0.898185 -6.73542 
1 -1.81784 22.8616 -0.624628 
2 1.80677 -3.34402 -2.62349 
1 7.77027 -14.8472 -1.09293 
1 10.2906 -15.2261 -16.3683 
2 -2.29011 -3.86538 0.300926 
1 -18.4901 -14.467 -20.6448 
1 17.996 20.2886 -16.4539 
2 4.25751 3.59393 -5.31937 
1 21.4112 15.5212 17.4972 
1 22.4891 -6.18272 23.3177 
2 -3.25868 -6.04511 -4.96268 
1 8.91346 -26.2621 16.5383 
1 -18.438 -8.55557 4.71915 
2 -1.20925 4.09658 4.41784 
1 21.4207 11.7965 -22.2682 
1 -4.28127 2.44202 -22.0087 
2 3.24375 5.45044 6.66402 
1 -15.8191 18.9399 16.7629 
1 9.72897 -5.50465 15.1153 
2 3.91881 -4.27877 4.80911 
1 -11.0643 -8.16244 -13.5184 
1 -10.9802 -6.24444 17.9314 
2 -2.59462 3.89421 -2.39836 
1 -15.731 -20.6589 19.7555 
1 17.5652 1.50022 6.91226 
2 -5.03073 -2.66478 3.26 
1 -5.69857 22.8708 -8.84921 
1 -11.0358 -17.5865 12.3288 
2 -1.1632 1.01884 -3.10548 
1 -5.34271 -24.2664 -3.40813 
1 -17.0152 9.8805 -19.6738 
2 -2.05863 1.41084 1.08951 
1 -5.34684 14.9195 5.86593 
1 -10.769 12.1777 -22.9865 
2 -4.81294 4.34034 -2.05085 
1 8.38269 13.8744 -18.4563 
1 -20.7504 11.0778 10.2049 
2 -4.97034 3.5731 -1.0017 
1 -19.1196 -4.0453 -4.68067 
1 -7.2503 10.5708 14.3547 
2 -1.31489 0.741288 -5.67407 
1 4.94578 -21.2288 0.15592 
1 -17.286 20.4558 24.5656 
2 -0.755542 -4.38136 -1.74706 
1 -16.1838 25.329 -22.0717 
1 -14.46 -3.28761 21.9044 
2 5.08167 5.173 6.03686 
1 26.6809 8.40315 23.3927 
1 -3.28136 26.8107 8.89642 
2 -4.30349 5.69722 -3.38995 
1 9.99381 -7.54346 17.0009 
1 -8.76819 23.9832 6.03921 
2 6.00961 5.87054 5.88834 
1 20.3908 -26.5496 18.3239 
1 13.744 25.5364 -10.7479 
2 2.76524 6.0725 5.82507 
1 20.1724 -4.23778 18.7059 
1 26.4245 -11.9332 -11.6406 
2 -0.899389 4.48787 -3.48452 
1 -22.3946 19.6864 18.4414 
1 -20.3836 -13.9545 12.9686 
2 -1.04439 -6.08188 4.09505 
1 23.2416 -13.799 19.667 
1 -3.64495 -1.60141 13.2499 
2 -0.142297 -3.43658 -4.14508 
1 9.89609 -20.6336 11.9709 
1 8.84245 -24.8503 12.7739 
2 -4.39519 4.94709 -1.11755 
1 -9.86274 -16.0718 -0.29857 
1 1.48375 10.2966 22.2128 
2 -2.46377 -5.36682 -1.29128 
1 -19.8866 -25.4507 22.0797 
1 -21.5239 -9.38899 8.71595 
2 -2.29767 5.28185 -4.95803 
1 -5.78372 3.78022 -14.2994 
1 4.13091 23.1503 18.9447 
2 5.35795 0.0700795 0.694321 
1 -17.6047 -13.6821 -25.0196 
1 22.3987 -5.20272 -15.2447 
2 -5.97791 0.244443 0.314156 
1 -1.62895 -6.67174 4.94893 
1 0.594999 7.59271 -20.7098 
2 3.01726 2.27717 2.32709 
1 -15.6511 18.4036 18.3368 
1 14.3906 -22.7033 -17.9908 
2 -4.34082 5.31781 -0.386526 
1 5.44944 26.0644 10.4393 
1 8.18577 17.0644 -5.9844 
2 5.50677 6.50359 -0.995479 
1 17.5164 -3.64584 -25.1119 
1 -7.8713 0.531703 21.4031 
2 3.14303 3.08981 1.00477 
1 22.938 -10.0847 -8.00213 
1 -2.8336 3.5205 19.516 
2 2.61412 1.82426 -3.06959 
1 8.49657 -27.1947 -17.3773 
1 -24.4569 7.99744 -6.86656 
2 5.38387 -0.6243 -0.675636 
1 -18.6235 24.5501 -25.1346 
1 -9.3125 -0.598347 -17.9744 
2 -3.18759 2.76195 -1.91745 
1 -20.3762 1.89564 27.2408 
1 -7.50701 -13.6232 -11.8245 
2 0.151678 2.58018 -3.29217 
1 -14.458 -23.4189 12.238 
1 -9.3319 -0.766229 -15.5735 
2 -2.8155 -0.581861 3.7374 
1 26.2998 11.6627 9.90377 
1 22.9403 -26.1544 -19.0206 
2 -0.0873307 -6.59817 -3.07714 
1 -8.58056 -26.5739 -9.30397 
1 3.12832 7.90881 24.1356 
2 -1.95575 -0.8634 2.23409 
1 3.14866 23.8985 -5.73613 
1 12.1865 23.9538 -0.05 
2 -0.44748 6.65368 -0.503022 
1 25.6581 -20.9154 -0.194463 
1 13.3704 -7.90997 -6.31372 
2 6.63279 -3.34391 -0.827372 
1 -22.7146 18.5846 19.2709 
1 17.7005 -5.5647 -16.5793 
2 -6.55002 -4.47893 -5.76668 
1 -4.50725 5.8779 -4.26549 
1 19.1626 21.7345 10.8495 
2 1.52947 -1.87301 5.62011 
1 -17.1978 -18.3461 7.64646 
1 -8.91249 -11.701 -19.0638 
2 -5.35843 -2.92424 4.93054 
1 -26.4314 3.26263 -24.1283 
1 14.3637 12.9583 8.25394 
2 -2.04726 1.68639 -2.80322 
1 -23.6258 18.0085 3.61058 
1 -9.73163 15.1537 -22.6687 
2 -0.225867 -3.88474 2.12234 
1 15.1623 21.3571 20.6889 
1 8.96943 -8.78562 -5.83312 
2 2.99989 -3.50643 -5.74313 
1 -2.98772 20.0853 -11.1514 
1 17.1724 26.3648 8.9603 
2 6.16991 0.829827 -3.49487 
1 -9.21645 -15.3644 -5.07506 
1 -10.2248 -19.6174 -16.6746 
2 0.475831 -2.21408 -1.20986 
1 0.635644 -15.2872 -11.811 
1 10.5527 -8.6873 17.3579 
2 4.20163 5.1664 4.06634 
1 1.86668 -16.392 -6.64144 
1 2.7224 -25.9789 -2.78443 
2 -3.78455 2.95423 -1.14918 
1 -9.25555 -20.8311 3.84445 
1 10.7999 17.5848 -2.36192 
2 6.52372 3.74432 0.244155 
1 -18.0962 -19.3131 -6.49373 
1 -12.7729 4.3336 -0.181936 
2 1.85136 -3.78884 5.31099 
1 -23.855 23.0213 22.8413 
1 15.5092 -13.026 -21.6067 
2 -4.90181 -3.53589 3.48332 
1 12.6741 19.1193 -9.49359 
1 20.266 -6.79133 4.31361 
2 5.54733 -6.93266 5.0831 
1 -21.7016 -8.19921 20.185 
1 12.0311 18.8687 15.9701 
2 -2.23182 -5.86167 -2.74152 
1 -20.0083 -6.90559 -15.3395 
1 11.1768 -1.51343 25.6011 
2 5.51494 -6.14159 -4.19002 
1 -12.4197 21.5574 20.7639 
1 20.9953 -22.589 3.53834 
2 6.50984 2.17106 4.69486 
1 -3.05594 13.9774 -25.166 
1 5.96385 -17.4304 -25.2 
2 -5.19589 2.38372 -6.38864 
1 4.93288 -20.7376 0.966604 
1 -23.3241 -16.0565 -14.9022 
2 -6.08022 -1.52487 -4.97958 
1 17.9592 -1.35115 -16.5806 
1 5.82259 -1.96796 -10.5892 
2 4.18482 -4.74419 -6.2793 
1 -5.35959 17.8147 5.46717 
1 21.4092 -17.5381 9.85612 
2 -4.23276 -5.28541 3.69798 
1 -6.32554 21.029 -8.19968 
1 -10.2975 9.1389 7.02961 
2 -0.700517 -6.5582 0.59936 
1 -21.7828 -16.4154 -19.3643 
1 -20.5386 -12.7903 -25.3136 
2 6.23732 2.29927 5.62844 
1 -3.04158 -16.2448 23.4174 
1 -22.3994 -6.62853 25.1276 
ITEM: TIMESTEP
4
ITEM: NUMBER OF ATOMS
192
ITEM: BOX BOUNDS pp pp pp
0.0000000000000000e+00 1.2417099278418796e+01
0.0000000000000000e+00 1.2417099278418796e+01
0.0000000000000000e+00 1.2417099278418796e+01
ITEM: ATOMS type vx vy vz 
2 0.693062 0.241176 5.05946 
1 -3.99975 6.34757 -13.6191 
1 -2.74104 26.0351 -5.16154 
2 2.18807 -4.22231 -3.77858 
1 3.84342 -13.7297 1.2175 
1 8.95919 -4.03783 -3.28679 
2 -4.24341 -3.80671 -1.65308 
1 -15.1416 -4.5332 -23.0521 
1 50.0927 10.6668 14.2784 
2 4.13032 5.94609 -5.15392 
1 15.3186 -10.7916 21.7177 
1 29.805 -14.8063 18.6042 
2 -1.23028 -5.83028 -4.41334 
1 -15.5052 -27.2784 -10.0711 
1 -17.4873 -6.91109 9.73742 
2 -2.10215 5.92846 3.59641 
1 18.7661 -11.3074 -10.1816 
1 7.68104 -13.1446 -19.2187 
2 3.21911 4.03712 5.49587 
1 -17.4791 11.129 1.33295 
1 7.89211 22.5369 47.1692 
2 3.16186 -4.12531 6.02891 
1 21.3686 -1.44596 -38.8364 
1 -33.2347 -9.68968 19.975 
2 -2.08593 4.39825 -1.88375 
1 -17.6112 -21.2525 19.6704 
1 13.5934 -0.949248 1.97656 
2 -5.29956 -3.13225 2.89511 
1 -5.84696 26.6629 -2.91315 
1 -5.42521 -11.6743 15.9841 
2 -2.52936 1.89402 -3.25133 
1 -1.29649 -13.4562 3.41319 
1 -1.06682 -10.3172 -26.2076 
2 -3.04392 1.34883 -0.868194 
1 0.372513 14.3575 8.81252 
1 1.31187 13.5723 10.3566 
2 -5.92946 4.40311 -1.85572 
1 20.4115 12.7593 -8.46013 
1 -14.387 11.0014 -5.61426 
2 -5.22201 5.80769 -0.0896782 
1 -26.5453 -16.1019 -3.55314 
1 8.26207 -7.12137 5.13985 
2 -0.403513 1.40968 -4.5613 
1 1.30207 -7.15748 -4.4334 
1 -16.1269 3.83416 10.3043 
2 -0.256503 -3.92368 -1.81378 
1 -24.2083 16.5988 -35.3183 
1 -11.3671 0.385307 30.3651 
2 3.84354 7.15696 5.14528 
1 24.7619 -12.9189 12.9874 
1 12.6797 14.9307 27.0084 
2 -4.47218 6.82918 -1.9897 
1 9.01247 -5.90382 10.445 
1 -7.95545 12.2555 -2.96057 
2 6.12658 6.39142 8.03302 
1 17.3997 -26.4358 2.02193 
1 15.4369 11.9112 -28.2361 
2 2.09612 6.18369 6.30698 
1 21.2399 -3.33546 8.64491 
1 28.1408 -11.4189 -11.1728 
2 -1.84362 4.60567 -3.6385 
1 -7.43236 28.5333 42.6786 
1 -15.5636 -20.4558 -10.5299 
2 -1.42319 -6.70691 5.65263 
1 22.3742 -4.25052 6.28123 
1 3.16851 -4.80362 2.07787 
2 -1.21404 -5.72439 -4.30229 
1 17.656 -6.25998 11.0446 
1 7.40191 -1.03592 13.9154 
2 -3.36647 4.65927 0.157175 
1 2.14732 0.722598 -7.41009 
1 -22.1649 -0.0711073 12.6353 
2 -3.75323 -5.58035 -0.648235 
1 4.10022 -16.1805 18.5539 
1 -25.7829 -12.7297 7.9855 
2 -2.02497 5.19895 -5.04156 
1 -4.3308 7.1424 -4.93574 
1 -0.23654 16.9152 9.67678 
2 5.72784 -1.13698 1.27929 
1 -16.3992 -18.8967 -23.0156 
1 15.3343 17.0231 -31.1008 
2 -5.02689 -0.660477 0.894692 
1 -8.13812 15.0905 0.545868 
1 4.36977 15.4149 -10.7577 
2 3.00197 1.84947 2.44784 
1 -14.8933 5.44076 3.83393 
1 20.1309 -8.11132 -6.28938 
2 -5.221 5.24306 -0.655563 
1 10.3389 30.6763 11.385 
1 14.7356 11.2224 -5.05318 
2 6.60172 4.79236 -1.72577 
1 -7.27709 14.7741 -5.02605 
1 -2.62937 13.6736 13.1148 
2 4.17038 0.392126 2.81693 
1 6.11456 4.83085 22.5571 
1 -3.30928 30.505 -31.7395 
2 2.76335 3.23426 -4.86833 
1 -0.948526 -23.7046 -6.87647 
1 -19.547 -18.5295 7.65447 
2 5.27752 -0.387568 0.0201195 
1 -22.6247 21.7285 -23.8894 
1 -4.43517 -1.16602 -27.0732 
2 -3.0787 2.2693 -2.65458 
1 -6.47863 -1.17074 24.6652 
1 -16.0576 1.47303 6.34864 
2 0.086231 2.63721 -4.65424 
1 -15.8699 -31.8683 7.14384 
1 -5.59258 8.74095 12.4828 
2 -2.61784 -0.65607 3.52574 
1 25.6022 16.0575 9.09031 
1 11.5376 -25.5315 -17.87 
2 0.190116 -6.57002 -2.00664 
1 -6.55952 -28.8591 -26.6489 
1 1.28273 7.08231 23.1476 
2 -1.96504 -0.112791 1.39604 
1 7.26694 18.1167 3.54727 
1 -0.108107 17.5197 6.17167 
2 -0.98633 5.47187 -1.05293 
1 13.5342 -5.23812 10.4238 
1 28.7566 -9.43851 -10.7895 
2 6.45373 -3.73106 -0.19694 
1 -11.8309 24.3744 7.10363 
1 15.8182 -4.70686 -16.5692 
2 -5.02222 -4.41699 -5.33629 
1 -13.7012 -5.86301 -0.456862 
1 4.30362 19.6606 5.23493 
2 1.11275 -2.81424 5.46571 
1 -5.12702 -16.4374 13.3494 
1 -13.3471 0.280862 -19.8825 
2 -4.70476 -2.12707 4.08654 
1 -41.5465 -13.4937 -6.93071 
1 22.0952 20.4173 4.09128 
2 -3.52512 3.01748 -2.08011 
1 -18.0523 12.2411 -18.188 
1 5.43343 1.392 -11.3073 
2 0.333125 -3.67706 0.68197 
1 26.0333 20.9931 30.6539 
1 -6.63958 -12.6964 8.35492 
2 3.22509 -1.96499 -5.66736 
1 0.0885509 4.01782 -22.5866 
1 14.319 16.6259 14.3436 
2 5.10103 -1.2846 -6.31191 
1 -9.09754 -20.9924 3.17309 
1 -0.781181 1.67909 22.1631 
2 1.96797 -4.16979 -1.93108 
1 -1.87765 -3.06722 -2.1418 
1 -8.28075 12.9508 13.7929 
2 3.78212 2.00807 1.98674 
1 4.85391 -10.7344 13.0647 
1 11.7207 21.364 8.68022 
2 -3.04915 2.38237 -2.01331 
1 -13.3255 -16.3376 6.04749 
1 3.52965 19.1343 6.09211 
2 4.99779 3.21604 -0.103191 
1 -8.66437 -3.07685 4.35948 
1 -5.9705 -1.70602 -2.9334 
2 2.58796 -2.96762 6.18607 
1 -35.2386 13.1477 17.7833 
1 5.91234 -18.0364 -29.1806 
2 -4.92694 -4.0753 1.51414 
1 27.4235 14.2793 14.3393 
1 7.92009 10.9644 2.09677 
2 4.49744 -7.04155 8.38347 
1 8.56908 -4.49852 -9.4759 
1 6.74143 12.1065 -9.66473 
2 -1.66931 -6.05707 -1.91474 
1 -27.1584 2.0211 -15.1984 
1 -0.696767 -6.11545 13.863 
2 4.15403 -5.84511 -2.82412 
1 0.44241 20.3969 2.00202 
1 35.3896 -32.126 6.0847 
2 6.17649 2.82075 4.06078 
1 -6.70092 7.55108 -20.1047 
1 10.7147 -22.5715 -13.3699 
2 -3.54505 1.76756 -7.00814 
1 -10.3447 -12.942 -8.08277 
1 -36.1255 -12.5845 -0.999452 
2 -4.13172 -2.95868 -6.30213 
1 13.6464 11.2141 -0.612804 
1 -25.5164 7.62585 -8.15793 
2 4.88983 -5.64444 -4.41909 
1 -8.44714 13.3658 -15.2711 
1 11.306 0.532218 -1.28372 
2 -3.4904 -5.69804 4.32037 
1 -16.2798 10.7922 -2.69496 
1 -10.9131 15.8035 -6.92291 
2 -1.29336 -7.93814 3.09893 
1 -12.5971 -9.06604 -20.7061 
1 -21.8109 3.20864 -61.6502 
2 4.64628 1.10567 5.16028 
1 20.5913 -10.953 25.5687 
1 -16.2493 6.84828 42.4908 
ITEM: TIMESTEP
8
ITEM: NUMBER OF ATOMS
192
ITEM: BOX BOUNDS pp pp pp
0.0000000000000000e+00 1.2417099278418796e+01
0.0000000000000000e+00 1.2417099278418796e+01
0.0000000000000000e+00 1.2417099278418796e+01
ITEM: ATOMS type vx vy vz 
2 -0.281889 0.410209 4.42138 
1 8.63686 -1.21851 -7.3225 
1 -5.89449 24.0304 -10.1598 
2 2.34718 -5.10365 -4.82134 
1 4.02386 -12.2965 1.75533 
1 5.48636 8.23456 10.826 
2 -3.6745 -4.1645 -1.38821 
1 -15.7303 0.357944 -22.0408 
1 46.094 12.6463 6.48019 
2 4.42139 6.19301 -4.97542 
1 11.0591 -13.2811 17.7307 
1 29.1739 -14.9266 21.2938 
2 -0.456941 -6.59891 -3.91755 
1 -25.1167 -20.3628 -24.8165 
1 -13.7924 2.2047 5.52695 
2 -2.34152 7.13963 2.9331 
1 11.7547 -32.1127 2.17843 
1 13.2327 -21.4756 -17.8801 
2 1.67564 3.95025 5.75629 
1 0.867302 13.0397 -1.63125 
1 12.5876 19.3465 44.0436 
2 2.86815 -4.13718 3.29588 
1 10.7072 -0.454671 -16.2511 
1 -18.8807 -3.28523 34.6621 
2 -2.79239 1.70576 -1.46803 
1 -0.677782 26.2453 17.1422 
1 8.17664 0.51775 -0.180061 
2 -6.39097 -3.11716 3.43473 
1 10.5593 14.8301 5.16533 
1 -3.66928 3.47804 3.19838 
2 -3.633 1.83818 -3.65009 
1 6.14731 1.98601 12.3988 
1 8.13693 -21.0391 -29.9545 
2 -3.75703 1.84729 -1.18031 
1 11.4864 10.9339 5.82147 
1 3.15231 5.86439 22.2103 
2 -6.4549 4.27122 -1.06397 
1 22.4505 15.2477 -6.19808 
1 -8.22992 11.2505 -22.3576 
2 -6.3603 5.35158 0.312008 
1 -9.28805 0.773561 -0.334339 
1 14.1698 -13.715 0.136038 
2 0.794336 2.09777 -3.06298 
1 -8.00557 15.3796 -11.6377 
1 -12.885 -20.1047 -7.16124 
2 0.794721 -3.82936 -1.01038 
1 -23.3553 9.62938 -34.7052 
1 -23.3092 9.60105 10.0029 
2 3.70992 7.15187 4.8567 
1 12.5773 -6.31754 8.14592 
1 21.3021 4.52958 29.6432 
2 -3.72828 7.76746 -0.831653 
1 -5.19934 3.27663 10.2912 
1 -7.68005 -3.76186 -13.1866 
2 6.80136 4.4151 9.41998 
1 8.20554 -10.7231 -35.3095 
1 13.7768 22.6809 -11.7481 
2 1.64375 5.28668 5.22931 
1 14.3669 -2.73608 6.71162 
1 30.7656 5.47011 2.6795 
2 -1.1615 5.53928 -1.68657 
1 -21.7598 18.2432 18.6678 
1 -5.25059 -21.1773 -21.7054 
2 -1.39197 -7.79091 7.07669 
1 18.5709 9.12443 -10.1264 
1 6.79175 -5.75867 -4.40803 
2 -1.76473 -7.45944 -4.77831 
1 19.1404 6.84483 13.167 
1 4.45669 16.0576 15.8184 
2 -3.24395 4.24674 0.920763 
1 10.6399 15.3257 -13.7555 
1 -26.9857 -7.11526 8.42119 
2 -5.22817 -5.88826 0.192365 
1 21.8752 -3.98111 9.41434 
1 -18.9953 -18.2442 8.92824 
2 -1.3211 5.4217 -4.70918 
1 -0.415904 7.74297 5.12328 
1 -14.8205 6.55834 -7.92144 
2 5.7677 -1.79331 1.49435 
1 -14.9898 -17.6282 -24.5418 
1 12.7845 25.3722 -35.0525 
2 -4.75275 0.0697524 1.28478 
1 -1.7869 15.1325 2.09021 
1 6.6799 18.3937 -0.780175 
2 3.38786 -0.128938 2.09398 
1 -12.2448 -8.51913 -5.05359 
1 16.2993 32.4359 7.41528 
2 -4.33626 5.72854 -0.922584 
1 -7.35573 33.9262 6.49226 
1 15.1236 -2.21334 1.28549 
2 6.97498 3.98214 -2.16293 
1 -24.0062 30.2342 9.29913 
1 5.28174 14.739 6.36532 
2 4.59464 0.0702498 2.13498 
1 -0.879851 12.0068 36.9287 
1 -4.3883 27.9643 -28.452 
2 3.1727 2.62287 -5.97094 
1 -8.67325 -18.1951 2.25126 
1 -20.3377 -13.0253 13.1271 
2 3.09229 0.179573 -1.62973 
1 3.86464 20.1918 -24.1283 
1 3.48269 -7.83994 4.79083 
2 -4.02497 2.14917 -2.53052 
1 22.9061 -2.69468 17.9858 
1 -24.036 8.11836 15.6879 
2 -0.568096 2.14078 -3.04025 
1 -2.72752 -24.3514 -26.6468 
1 -9.55497 10.2494 22.0291 
2 -0.322462 0.478325 2.38605 
1 12.6896 -7.00601 20.9127 
1 -18.5143 -14.1839 -13.4011 
2 1.15166 -6.71741 -2.34435 
1 -8.62135 -29.9981 -11.7933 
1 -9.65522 9.50818 9.45298 
2 -1.07102 1.26417 0.924519 
1 3.71887 8.43848 4.41122 
1 -19.5439 3.46959 13.9935 
2 -0.490553 2.49121 -2.35899 
1 -12.8435 11.2177 26.1575 
1 40.9897 16.8112 -8.23137 
2 5.11232 -3.57399 0.989819 
1 16.6586 28.7569 -21.1962 
1 15.6528 -11.831 -9.07246 
2 -3.757 -4.72958 -4.84684 
1 -11.4071 -10.3966 3.63493 
1 -17.7734 15.5467 -2.33946 
2 -0.539619 -4.06827 5.17465 
1 21.0264 0.647501 20.3084 
1 -12.4397 2.63839 -20.8098 
2 -5.38088 -2.64411 3.88827 
1 -35.9926 -8.9292 -1.12776 
1 30.493 19.8206 4.29692 
2 -6.01028 5.09176 -2.20908 
1 4.82415 -7.93253 -36.215 
1 19.1651 -7.61482 10.6334 
2 2.89234 -4.24221 1.42297 
1 -8.59033 28.3423 19.4563 
1 -7.74881 -11.9833 8.12855 
2 3.86101 0.237451 -6.55022 
1 2.14361 -1.07874 -24.3443 
1 5.24438 -12.3738 24.9053 
2 4.4999 -3.75595 -6.60411 
1 -9.11492 -6.02425 -3.24958 
1 2.82176 7.82382 34.0835 
2 2.62957 -4.66252 -2.19875 
1 -3.13239 11.9645 11.7188 
1 -15.5227 8.43294 -1.8985 
2 3.63827 0.641664 1.53431 
1 10.6184 -1.74476 21.2199 
1 10.8753 36.2446 4.62794 
2 -1.52445 2.38607 -1.72035 
1 -11.7282 -13.1299 5.83276 
1 -21.1071 14.1074 -0.894791 
2 2.36131 2.09834 -0.749749 
1 3.80698 24.0061 20.192 
1 14.6994 -8.93139 -6.85154 
2 2.82137 -2.51459 7.29908 
1 -39.8699 7.57837 0.926456 
1 -3.18661 -18.7022 -26.6643 
2 -3.97625 -4.91971 1.00246 
1 28.6272 16.4158 15.9119 
1 -5.11495 25.7421 0.90688 
2 4.29305 -6.99053 9.69579 
1 20.8683 -3.00393 -13.4884 
1 4.62258 6.96097 -28.2049 
2 -1.21606 -5.90179 -0.865509 
1 -28.5566 12.2947 -11.6798 
1 -14.9616 -18.6895 -4.89853 
2 2.6088 -4.37148 -2.67605 
1 22.3002 -3.33141 0.51896 
1 43.1001 -35.4304 10.1699 
2 7.00809 3.06743 3.23775 
1 -10.5838 -1.60304 -12.1586 
1 -1.62519 -16.3744 -2.70047 
2 -2.70981 1.46989 -6.79711 
1 -24.3707 -3.64279 -12.0654 
1 -35.9633 -14.2694 -2.42961 
2 -4.13095 -3.67421 -7.03551 
1 9.52166 16.8482 6.01805 
1 -24.5202 11.9219 -5.24804 
2 5.35683 -6.30871 -2.90069 
1 -7.15479 6.332 -24.2932 
1 0.516118 16.4174 -16.619 
2 -3.834 -4.83595 3.18175 
1 -27.5896 -2.29286 7.1605 
1 7.21672 6.25309 1.6808 
2 -1.35498 -7.86026 0.444916 
1 2.05306 4.10921 -14.7853 
1 -37.0651 -9.68628 -24.0833 
2 3.6312 0.314498 5.12153 
1 30.2829 -8.39337 27.3041 
1 -4.98036 16.2393 53.7959 
ITEM: TIMESTEP
12
ITEM: NUMBER OF ATOMS
192
ITEM: BOX BOUNDS pp pp pp
0.0000000000000000e+00 1.2417099278418796e+01
0.0000000000000000e+00 1.2417099278418796e+01
0.0000000000000000e+00 1.2417099278418796e+01
ITEM: ATOMS type vx vy vz 
2 -1.08473 0.80892 3.65911 
1 18.7239 -10.6865 -1.02521 
1 -8.7735 17.7441 -13.1329 
2 2.03641 -5.09094 -4.52669 
1 7.52341 -11.1681 0.737676 
1 4.49952 6.35874 7.33771 
2 -0.733841 -4.85717 1.06681 
1 -23.3751 -2.86467 -16.6661 
1 11.5089 28.3565 -39.4931 
2 5.11248 3.89782 -4.92149 
1 10.0121 14.6871 8.28727 
1 20.437 -6.16203 30.1775 
2 -2.24317 -8.03915 -5.26113 
1 3.54364 -0.712254 -6.44042 
1 -10.2748 11.5326 -0.306776 
2 -2.53666 5.93764 3.28664 
1 17.49 -24.7066 4.20619 
1 3.69347 -19.7484 -22.4306 
2 -0.547224 6.19774 8.25588 
1 19.4167 17.548 -2.12147 
1 27.5891 -22.014 2.47434 
2 2.85382 -4.06559 -0.0699673 
1 -16.2615 -3.46951 20.1459 
1 7.5792 4.71734 45.3942 
2 -2.62426 1.40727 -0.952638 
1 2.88818 30.8304 10.3367 
1 2.56539 6.32826 1.2007 
2 -7.30102 -3.00454 3.73632 
1 24.903 2.29023 13.5375 
1 -2.15208 17.2717 -8.50292 
2 -3.08387 0.980464 -3.6025 
1 10.5076 4.5434 12.8503 
1 -5.10368 -8.20678 -31.297 
2 -3.18694 2.88317 0.00743011 
1 14.9831 8.55388 6.45186 
1 -6.98818 -14.503 6.68401 
2 -5.56648 4.22029 -0.5606 
1 15.8862 22.1096 -14.495 
1 -15.3688 5.70914 -22.3377 
2 -6.53847 2.97238 -0.13226 
1 13.5031 22.2246 1.9563 
1 1.81954 3.50026 6.43637 
2 0.622723 2.37214 -2.81843 
1 -0.706628 20.9405 -13.1366 
1 -4.88379 -21.7424 -11.2218 
2 0.964172 -3.66331 -1.46527 
1 -11.441 13.9595 -20.8493 
1 -31.2568 8.63743 -4.41607 
2 4.95577 5.0359 6.13151 
1 -4.53777 16.8945 6.61202 
1 11.802 9.07247 4.71215 
2 -3.26477 7.6874 -0.173311 
1 -16.3846 10.1886 7.4092 
1 -3.18662 -1.43611 -13.3328 
2 6.83971 3.24641 8.36428 
1 7.5182 -14.741 -38.9782 
1 11.8513 40.6648 8.79479 
2 1.83561 5.02621 4.09119 
1 4.45028 -1.36976 10.1173 
1 24.9295 11.243 11.056 
2 0.128454 6.10078 -0.793605 
1 -35.6321 2.2426 -17.7006 
1 -3.64338 -12.2405 -9.13462 
2 -0.922872 -7.84992 5.98433 
1 18.5342 2.91614 -2.52814 
1 1.34149 -0.641359 2.72848 
2 -1.42172 -6.91345 -5.38317 
1 17.4942 14.5617 16.4697 
1 -7.56558 4.70441 18.1271 
2 -4.02936 5.05452 0.11359 
1 1.60961 1.33345 -8.6903 
1 1.77675 -6.5975 15.8174 
2 -4.46946 -6.36519 1.09893 
1 4.82745 8.8974 4.06612 
1 -9.59259 -21.4363 5.15932 
2 -1.46921 6.07547 -4.62016 
1 1.50192 -0.93839 9.01268 
1 -15.143 -1.56483 -16.9468 
2 5.23563 -1.02601 0.773563 
1 -18.0668 -14.1299 -22.6335 
1 21.8973 12.2853 -26.4173 
2 -4.69468 2.35708 2.2542 
1 12.4268 -0.836927 7.80905 
1 3.9366 11.6438 -2.03235 
2 2.62149 -0.292272 0.631371 
1 -3.62809 -10.8066 7.49212 
1 23.5905 30.451 16.6992 
2 -3.63573 5.89378 -1.00017 
1 -16.1163 30.2003 6.8371 
1 9.72118 -5.59756 -1.96744 
2 5.24803 5.01578 -0.821193 
1 -7.73057 28.3453 -7.08004 
1 12.6137 4.32104 4.70332 
2 3.66645 3.02256 -0.60869 
1 17.4216 -3.32676 18.9415 
1 -7.4338 -7.20137 39.0935 
2 2.95405 0.541828 -5.51685 
1 -6.27319 -12.0435 -1.5556 
1 -22.7027 16.2887 9.03287 
2 1.31811 0.864451 -2.9587 
1 15.6513 14.7102 -16.3138 
1 16.5251 -11.3495 22.4134 
2 -3.15364 3.36505 -1.46141 
1 14.9008 -6.39563 19.7152 
1 -23.3908 -4.99831 0.933126 
2 -0.587763 2.04641 -0.593672 
1 10.6145 -14.0434 -44.5172 
1 -24.3797 1.20459 2.66363 
2 1.07852 0.317293 1.80456 
1 0.481233 -11.9228 27.2133 
1 -32.7707 1.21439 -12.2036 
2 1.62571 -6.61407 -3.54404 
1 -10.9858 -28.4024 13.7693 
1 -14.6573 6.77959 -2.07148 
2 -0.546253 1.9529 1.73899 
1 -5.4232 -3.85466 -2.23406 
1 -27.0129 0.892851 8.52081 
2 -1.32862 2.12112 -2.5096 
1 -7.50601 9.67372 24.8137 
1 44.6956 21.4326 -4.85997 
2 4.96592 -3.27724 0.847741 
1 21.7777 28.3944 -23.5234 
1 17.7892 -15.5045 -5.70486 
2 -4.56664 -4.9036 -4.91966 
1 1.43141 -3.62479 6.46845 
1 -17.7239 -1.54215 0.656594 
2 -1.21474 -3.2984 5.26294 
1 25.0242 -4.57185 21.1158 
1 -5.31086 -4.54073 -22.9328 
2 -6.71356 -4.84464 4.77868 
1 -12.3652 19.2752 -9.59897 
1 31.5071 19.6394 3.27986 
2 -6.5254 5.69386 -1.19321 
1 10.4552 -14.5893 -41.4913 
1 18.3544 -7.48209 4.64567 
2 3.45794 -4.89467 2.8427 
1 -27.5317 33.0281 14.4182 
1 6.41583 -6.2109 -9.02512 
2 4.05684 -0.765587 -7.36129 
1 1.84042 11.8694 -8.87722 
1 4.70374 -6.93478 15.9162 
2 4.73613 -4.52842 -3.99105 
1 -6.22429 17.2812 -7.86299 
1 -8.67113 -19.7192 -2.72574 
2 2.82597 -3.36658 -1.14007 
1 -9.72376 21.465 8.87311 
1 -9.00153 -17.4473 -21.1538 
2 3.92408 1.71483 3.49898 
1 21.053 7.51235 7.41953 
1 -1.60094 12.066 -15.688 
2 -1.08431 2.37712 -1.85367 
1 -7.6396 -11.5854 1.45961 
1 -29.7827 12.2504 3.01811 
2 1.62604 3.39089 -0.188407 
1 2.61531 9.28785 13.417 
1 16.9457 -12.1967 -9.23688 
2 2.32686 -2.55344 7.44005 
1 -35.6476 6.68366 -7.62905 
1 -9.17031 -13.6336 -14.6509 
2 -3.2283 -5.22172 2.34122 
1 14.7394 29.6003 -6.78297 
1 1.29669 20.7759 -3.81483 
2 4.57432 -7.2679 7.38877 
1 8.23436 -5.33907 14.0292 
1 17.5334 12.9215 -19.0924 
2 -1.78788 -6.49867 -0.0649575 
1 -25.5041 19.537 -9.38252 
1 -14.3692 -18.1996 -18.7673 
2 1.74383 -3.80351 -2.37572 
1 35.2151 -19.2639 4.71197 
1 45.9436 -31.1413 7.25946 
2 7.36879 2.80139 2.57938 
1 -5.94243 -4.01385 -7.36924 
1 -15.2289 -8.29228 7.84859 
2 -4.00498 1.84064 -6.36584 
1 -13.054 -0.354046 -6.35991 
1 -26.7426 -20.9133 -15.0976 
2 -6.42376 -3.02283 -6.37649 
1 7.78985 4.78316 -9.06685 
1 11.3303 11.4581 -2.03117 
2 4.46266 -5.34412 -3.93769 
1 -2.06611 4.89901 -5.88194 
1 5.50538 0.238336 -17.8473 
2 -5.06135 -4.57888 2.80306 
1 -24.3241 -4.83384 4.05144 
1 25.3631 -3.51441 10.9173 
2 -1.37011 -6.98826 -3.33329 
1 11.503 4.67094 -3.95623 
1 -47.4584 -22.202 27.2263 
2 4.85724 0.82913 6.16393 
1 19.8402 -7.69036 31.7672 
1 -10.0085 7.60517 42.5867 
ITEM: TIMESTEP
16
ITEM: NUMBER OF ATOMS
192
ITEM: BOX BOUNDS pp pp pp
0.0000000000000000e+00 1.2417099278418796e+01
0.0000000000000000e+00 1.2417099278418796e+01
0.0000000000000000e+00 1.2417099278418796e+01
ITEM: ATOMS type vx vy vz 
2 -1.37804 0.704568 3.40553 
1 16.7072 -11.1692 -6.67772 
1 -7.74345 9.40961 -11.0719 
2 1.57429 -4.17294 -3.11919 
1 7.79966 -12.611 0.392138 
1 7.92288 -9.2016 -13.571 
2 0.256092 -4.51031 0.705378 
1 -29.9235 -3.20587 -15.3859 
1 8.82709 23.7091 -38.1776 
2 5.42055 2.65802 -4.45267 
1 10.5763 23.835 -2.08395 
1 16.9587 3.69869 33.3322 
2 -3.62533 -8.7079 -6.75249 
1 26.0744 16.4226 7.71428 
1 -6.97183 12.1823 0.271873 
2 -3.39976 3.3768 4.17953 
1 30.9656 -1.8268 -2.83381 
1 -3.30478 -12.2078 -26.742 
2 -0.655792 6.70579 9.22096 
1 18.7284 14.1792 -10.2843 
1 27.6732 -26.7751 -7.01035 
2 3.51576 -3.67039 -1.10309 
1 -31.8078 -6.22086 33.2704 
1 11.0504 5.81449 42.4644 
2 -1.61279 3.79169 0.084995 
1 -7.28759 -7.94933 -0.335615 
1 -1.80805 11.5727 -0.232857 
2 -7.30886 -3.40166 2.86633 
1 19.3577 7.62057 20.3471 
1 3.99108 19.8772 -1.57945 
2 -2.02569 0.918188 -2.94782 
1 9.70951 -10.0724 2.73198 
1 -19.0692 8.3448 -30.8063 
2 -1.86477 3.62414 0.672986 
1 6.49515 7.59306 11.9386 
1 -17.3797 -33.0258 -5.9588 
2 -4.38037 4.66467 -1.12014 
1 14.2796 24.6997 -14.3539 
1 -32.4139 -2.96994 -13.3082 
2 -5.30013 2.02596 -0.510039 
1 15.8749 20.1547 1.54671 
1 -12.0979 22.5823 12.2304 
2 -0.857909 1.6824 -4.12393 
1 22.9464 6.37034 -8.14692 
1 6.08769 10.1786 2.7376 
2 -0.0618179 -2.23592 -3.33628 
1 1.65964 13.1319 -7.33269 
1 -22.3864 -6.75715 1.95719 
2 5.85135 3.8094 7.7524 
1 -15.4572 24.3072 -0.109402 
1 1.16535 15.0973 -20.3974 
2 -4.00008 7.13994 0.37423 
1 -8.92568 5.52405 -5.69124 
1 5.08411 19.6537 -4.24604 
2 6.33972 4.40073 7.28637 
1 13.4741 -28.7352 -9.98221 
1 11.2912 34.2062 -3.02712 
2 2.2921 5.49088 3.71215 
1 0.73662 4.69275 10.2518 
1 7.02143 1.16302 9.75795 
2 -0.455457 5.29624 -3.06509 
1 -18.7367 2.1959 -16.5635 
1 -5.72752 1.45594 12.9133 
2 -0.244989 -7.34295 3.9899 
1 18.3759 -11.9823 15.5259 
1 -5.87542 5.69302 12.4477 
2 -1.21388 -5.26473 -5.3258 
1 17.3391 14.5137 15.2195 
1 -17.0059 -13.4144 14.031 
2 -3.61644 5.90141 -0.0978661 
1 -10.2584 -15.8671 -3.20475 
1 16.0449 -5.66278 14.0235 
2 -2.69001 -7.01056 2.31858 
1 -23.5326 19.9961 -0.149363 
1 -4.0666 -20.6832 -4.30613 
2 -2.88496 6.55547 -5.24823 
1 -0.152421 -10.1039 8.9251 
1 7.88816 -4.7462 -10.7162 
2 5.01088 0.0852119 -0.542629 
1 -25.1466 -10.4145 -14.4811 
1 29.366 -4.64159 -12.2479 
2 -4.18486 3.87607 3.64988 
1 19.0565 -3.07014 11.7026 
1 0.464046 2.79497 -8.7852 
2 1.74595 1.14203 -0.304619 
1 3.26606 -7.78732 18.3144 
1 33.2947 -2.58072 19.5536 
2 -3.95944 5.92648 -1.07705 
1 -3.47488 18.32 15.191 
1 -0.359691 0.783475 -13.5624 
2 3.13765 6.232 1.03661 
1 19.0843 17.5553 -34.5111 
1 15.6155 0.102714 6.79859 
2 2.7953 3.76492 0.196355 
1 37.3777 -18.0517 1.3805 
1 -11.2789 -7.91717 46.8992 
2 2.04121 -0.520943 -4.64874 
1 3.35557 -7.05031 -14.668 
1 -22.5618 29.727 8.52317 
2 0.924294 1.35572 -2.49037 
1 0.82111 3.24576 0.96154 
1 31.7427 -7.88502 1.64102 
2 -1.22603 4.50746 -0.621261 
1 -13.4693 -9.14505 24.066 
1 -19.2816 -17.5789 -15.2771 
2 -0.596893 2.19127 -1.46226 
1 11.3695 -20.1518 -16.479 
1 -26.6664 4.98635 -10.4664 
2 -0.249284 -1.25763 2.64449 
1 -4.96897 13.0711 20.3386 
1 -10.1634 11.1759 -19.2791 
2 0.772157 -5.91663 -4.3175 
1 -8.06739 -26.8577 20.451 
1 -3.65484 -5.31902 0.313477 
2 -1.31133 1.32371 3.17735 
1 -9.36909 -13.6304 -1.82191 
1 -17.5824 16.6144 -12.0538 
2 -2.94522 4.67074 -1.70493 
1 25.4674 -9.21742 11.1317 
1 35.1851 -1.40524 -3.31594 
2 6.64458 -3.46807 -0.706661 
1 -4.54147 28.3509 5.32602 
1 21.2497 -11.3508 -11.546 
2 -5.77662 -4.52019 -5.17932 
1 6.62099 -0.934349 8.21973 
1 -3.23231 -21.7839 8.07559 
2 -0.536802 -1.95118 5.55039 
1 8.94442 -26.0905 15.5982 
1 -1.24229 -4.16745 -22.55 
2 -6.26333 -5.93745 5.11692 
1 -8.69635 27.9612 -5.03551 
1 22.33 22.6304 -0.880344 
2 -4.16744 4.05544 0.386044 
1 -16.4001 3.78185 -35.43 
1 3.74103 1.50938 -18.3398 
2 1.95372 -4.56743 2.78987 
1 -2.51865 24.7927 23.1373 
1 6.25188 -3.04288 -14.3501 
2 3.9065 -2.42825 -6.96032 
1 3.05756 17.1132 -2.6642 
1 8.30304 16.8746 -4.05324 
2 4.47842 -5.26349 -3.34135 
1 -1.09374 24.9383 3.30324 
1 -14.8354 -33.0957 -24.5286 
2 3.25473 -2.78564 -0.40027 
1 -14.458 19.8723 -5.87019 
1 -5.58036 -20.1034 -22.732 
2 4.38746 3.06942 5.16536 
1 29.7035 13.4704 -6.79013 
1 -13.1634 -13.8718 -30.3664 
2 -1.79127 2.11649 -2.63335 
1 -6.22768 -9.42287 -5.67784 
1 -16.4223 13.5034 20.7468 
2 2.73398 5.41141 0.705152 
1 -5.5456 -20.3447 -1.54039 
1 -4.06301 -12.1318 -10.0665 
2 1.35552 -3.30664 6.23041 
1 -26.0748 10.1927 1.09892 
1 -9.11953 -1.40715 2.52726 
2 -3.63693 -4.28279 2.52862 
1 8.24499 33.4556 -7.56646 
1 18.6556 5.89738 -11.2671 
2 5.11387 -7.44898 5.40601 
1 -4.82416 -9.63983 30.1864 
1 27.8236 19.4988 -1.9972 
2 -3.63339 -8.2448 0.344832 
1 -20.8707 20.0301 -13.1824 
1 6.47091 7.29867 -21.4424 
2 2.14977 -5.95236 -1.1489 
1 28.8205 -0.572507 2.11828 
1 45.5189 -18.4394 -2.62274 
2 5.96692 2.36476 2.17015 
1 6.34824 1.94992 -7.44026 
1 -9.14843 -6.27595 20.3742 
2 -5.63522 1.84451 -7.01426 
1 5.42216 2.59518 3.21085 
1 -19.3874 -22.2029 -13.7238 
2 -6.59224 -2.18808 -5.37371 
1 0.932439 -6.34736 -24.2679 
1 19.6103 7.86815 -3.93227 
2 3.18443 -3.68745 -5.16371 
1 3.22276 3.15933 9.58772 
1 15.0426 -25.4865 -13.2015 
2 -5.66145 -5.8839 4.611 
1 -10.4053 1.34284 -11.0746 
1 21.3099 2.689 -2.04992 
2 -1.44952 -6.13527 -4.97599 
1 10.5322 -15.4815 8.33372 
1 -46.665 -12.4009 42.7965 
2 6.28199 2.01539 8.49652 
1 7.89421 -11.5278 27.6406 
1 -17.2716 -8.1243 16.4711 
ITEM: TIMESTEP
20
ITEM: NUMBER OF ATOMS
192
ITEM: BOX BOUNDS pp pp pp
0.0000000000000000e+00 1.2417099278418796e+01
0.0000000000000000e+00 1.2417099278418796e+01
0.0000000000000000e+00 1.2417099278418796e+01
ITEM: ATOMS type vx vy vz 
2 -1.57811 0.182537 3.52064 
1 6.74323 -6.20849 -20.3988 
1 -1.06328 1.54268 -3.83066 
2 1.39579 -3.81556 -2.50755 
1 5.77859 -15.5256 0.0520523 
1 7.64227 -14.2967 -21.2167 
2 -0.414527 -3.65073 -1.5911 
1 -28.3914 6.05554 -20.8233 
1 25.6874 2.37879 -0.481634 
2 4.99813 3.65212 -3.38566 
1 10.2336 1.98205 -12.0199 
1 25.2841 8.17494 27.505 
2 -2.48361 -7.85335 -6.71806 
1 11.0899 18.7171 -8.27487 
1 -3.76186 2.72159 5.64976 
2 -3.78827 2.10077 4.19053 
1 21.0568 -1.82348 -2.24862 
1 6.76082 -3.09344 -22.4145 
2 1.05814 5.29997 8.50587 
1 6.42787 6.31689 -20.0454 
1 10.2418 2.69723 11.8626 
2 3.82109 -3.19417 2.11148 
1 -11.1397 -4.60189 -10.4697 
1 -17.6847 -1.11686 30.7337 
2 -0.781095 5.34057 1.05798 
1 -13.3608 -30.5623 -7.48038 
1 -6.38809 13.2177 -4.89497 
2 -6.91346 -3.94906 1.38312 
1 1.54532 24.4665 23.7935 
1 14.4806 12.9183 17.9118 
2 -2.38321 1.81549 -2.69346 
1 9.34579 -19.8289 -5.93306 
1 -8.08301 5.11096 -24.3749 
2 -0.990611 3.65252 -0.131142 
1 -4.48997 5.46383 15.529 
1 -19.5153 -39.6213 5.05348 
2 -4.38034 5.09804 -1.58743 
1 18.2505 20.4494 -0.766004 
1 -36.594 -5.08005 -18.6742 
2 -3.36705 4.63875 0.0409339 
1 -9.22115 -13.1411 -0.331468 
1 -10.036 17.5411 2.76032 
2 -1.03259 1.06642 -4.42087 
1 30.0133 4.56613 -7.76708 
1 12.5123 28.4168 6.59859 