comment line

  192 atoms
  2 atom types

  0.0000000000000000E+00   1.2417099278418796E+01 xlo xhi
  0.0000000000000000E+00   1.2417099278418796E+01 ylo yhi
  0.0000000000000000E+00   1.2417099278418796E+01 zlo zhi

Atoms

    1   2   2.9704911709521791E+00   1.1021604344931998E+01   5.3254020994507201E+00
    2   1   2.4836909790974153E+00   1.1645604591069674E+01   4.7741418819415973E+00
    3   1   3.7344614722258798E+00   1.1412304498877607E+01   5.8007522866596037E+00
    4   2   1.1293604452290623E+01   1.1194004413039899E+01   8.6768434406444148E-02
    5   1   1.0406604102395265E+01   1.0926604307686388E+01   3.4829313707207921E-01
    6   1   1.1449104513331001E+01   1.0599104178298328E+01   1.1709404616325905E+01
    7   2   1.0205504023180653E+01   7.9950331520334750E+00   7.5217829654178621E+00
    8   1   9.7793738554156366E+00   7.3029528789718032E+00   8.0675031801624097E+00
    9   1   9.4649637312778854E+00   8.1872532275752068E+00   6.7791426723926458E+00
   10   2   5.7970822855522348E+00   4.2497216753312221E+00   5.1475620293120645E+00
   11   1   5.7612022710765203E+00   5.2613620743383569E+00   4.9832719644125616E+00
   12   1   6.4122925278307878E+00   4.0216515854280868E+00   4.4326917475541663E+00
   13   2   3.8017414985710816E+00   4.3111216993802515E+00   1.0677604209294989E+00
   14   1   4.5705818018203406E+00   4.6181918207740882E+00   1.6758806607111565E+00
   15   1   3.8759015282005351E+00   4.9442919494138504E+00   2.6631810518189203E-01
   16   2   3.9124015425691776E+00   9.8946939005891146E+00   8.7282534409157506E+00
   17   1   4.3457317134266225E+00   1.0744904235892790E+01   8.4890633465657999E+00
   18   1   2.9833011758411585E+00   1.0195004019155942E+01   8.4850533448684793E+00
   19   2   8.3393232873643495E+00   3.7590814820741132E+00   3.4283113513389023E+00
   20   1   9.2067936295197406E+00   4.0763416070170182E+00   3.8229515068914997E+00
   21   1   8.5085233542154324E+00   3.0391911982982793E+00   2.6565710474467563E+00
   22   2   7.1744528292634369E-01   3.9021015384245770E+00   9.6309337967578426E+00
   23   1   1.2862805068999164E+00   3.9857315715055273E+00   8.9063835112774470E+00
   24   1   1.2363104874029196E+01   3.6633914443160664E+00   9.1428536040828430E+00
   25   2   2.5230709949147001E+00   4.4280017457352949E+00   7.4511729374968896E+00
   26   1   2.8994311429040769E+00   5.3669221158372968E+00   7.4005129173287010E+00
   27   1   2.7260310748664502E+00   4.0410415929873871E+00   6.5771325930620641E+00
   28   2   1.0402804100968941E+01   1.1807704655032975E+01   5.5567121905866941E+00
   29   1   9.6162537907408350E+00   1.2352204869715088E+01   5.6265222179288745E+00
   30   1   1.0557404161755061E+01   1.1446104512483473E+01   6.4520525436848697E+00
   31   2   3.6445414366976498E+00   1.1934904705256042E+01   4.4243817423489507E-01
   32   1   3.2755612914282102E+00   1.1210204419204091E+01   1.2304504850947586E+01
   33   1   2.9302711551092573E+00   2.4166009511830802E-01   4.9262919416827827E-01
   34   2   5.5036721694639033E+00   8.1836332263055720E+00   1.1082804369100916E+01
   35   1   6.2577024669063785E+00   7.9230831235928250E+00   1.0496004137706032E+01
   36   1   5.8598723099586758E+00   8.4768733415697497E+00   1.1927404702078860E+01
   37   2   7.1908228346642531E+00   3.1664412483590785E+00   1.0594704176702498E+01
   38   1   6.5512525826461978E+00   3.4645813657131250E+00   9.9003339030291553E+00
   39   1   6.6159226080423776E+00   2.8479011225959403E+00   1.1337604469307268E+01
   40   2   5.2716720783446682E+00   1.9218107576355168E+00   1.2396404887141021E+01
   41   1   4.6910818494450197E+00   1.1863804675644385E+00   1.2334604862802594E+01
   42   1   4.6916418496385033E+00   2.6821710575012929E+00   3.5009513787044594E-01
   43   2   5.0477319900669197E+00   1.1869504679371399E+01   6.7558526632023783E+00
   44   1   5.7240722564240603E+00   1.1224804425269056E+01   7.0185827669896161E+00
   45   1   5.2667920765073992E+00   3.1234412318013349E-01   7.2043328399273818E+00
   46   2   5.4936121641170799E-01   1.0061203966539134E+01   2.1976808665107979E+00
   47   1   1.0159204006748981E+00   1.0777204248545713E+01   2.7246210742564401E+00
   48   1   1.2968405090365390E-01   1.0412804105028789E+01   1.3523705332969940E+00
   49   2   1.1390304490369283E+01   1.0552104161492506E+00   9.8494538827282572E+00
   50   1   1.1573304562706538E+01   2.0124107954020051E-01   9.4812837378993233E+00
   51   1   1.0874104287033660E+01   1.5012705919436298E+00   9.0729135769508886E+00
   52   2   9.4717137337140045E+00   9.2332736401051143E+00   4.6154218193918002E+00
   53   1   1.0267604047603832E+01   8.8655434950124192E+00   4.1935616534328366E+00
   54   1   9.7673338504619629E+00   1.0065403968254852E+01   5.0656019969498560E+00
   55   2   4.2676916824188016E+00   6.9918027563194913E+00   7.6642530214365534E+00
   56   1   4.0066315793503042E+00   7.6371030105913409E+00   6.9413027365845679E+00
   57   1   4.1704616442609677E+00   7.5601629802470676E+00   8.4970733495695541E+00
   58   2   7.3842529109358850E+00   8.2698932600589661E+00   7.1154528048340762E+00
   59   1   6.6786026329116392E+00   7.8822031073517751E+00   7.6736230252125841E+00
   60   1   7.6158030024571683E+00   9.0714235763888329E+00   7.6889430313751195E+00
   61   2   1.4064105554078637E-01   7.3286328889783841E+00   2.0004107867201124E-01
   62   1   7.9799431453361835E-01   7.5729629852743354E+00   8.0137031589660279E-01
   63   1   7.1618728211938143E-01   7.1738628278972874E+00   1.1837904666563450E+01
   64   2   5.7811722790819040E+00   2.1989308666875433E+00   7.5243429665291517E+00
   65   1   5.5309921806040920E+00   2.8259111139493283E+00   6.8183326881915320E+00
   66   1   5.2307520621275962E+00   2.4647609715269554E+00   8.3083432755076814E+00
   67   2   7.9667831405247176E+00   1.0450704120145732E+01   8.7458134478522229E+00
   68   1   7.1705128265980935E+00   1.0532404151870031E+01   9.3210736747874723E+00
   69   1   8.3342032856709487E+00   1.1314604460340043E+01   8.5081733542929463E+00
   70   2   1.2081704762780227E+01   9.4935637427091297E+00   1.0311904065234408E+01
   71   1   1.1687104607203651E+01   8.6900434258523447E+00   1.0706504220810984E+01
   72   1   5.8955323243016799E-01   9.6084237878937664E+00   1.0653504199664216E+01
   73   2   1.2289604846385400E+00   4.0215515852234436E+00   1.9215007576890526E+00
   74   1   2.1466208460532137E+00   4.0991516159658454E+00   1.6157406367005833E+00
   75   1   7.2963628753814169E-01   4.4118217392945223E+00   1.2052104749302550E+00
   76   2   8.0837731869461162E+00   5.7001322472265539E+00   1.2174604799432565E+01
   77   1   8.0245731636950008E+00   4.8491519114583985E+00   1.1682504605727713E+01
   78   1   8.9559335303912011E+00   5.7188322542734165E+00   1.9291807615520970E-01
   79   2   4.0697316042323859E+00   1.7749406994918195E+00   3.2816312937427803E+00
   80   1   4.5700118017651450E+00   2.3304309188309724E+00   2.6601210486260598E+00
   81   1   4.6924518500790073E+00   9.9099039088020047E-01   3.6065314215143540E+00
   82   2   9.2126736318159121E+00   9.0510135681180319E+00   1.1055404358537862E+01
   83   1   8.7888834650294765E+00   9.8825238958456634E+00   1.0903604298719163E+01
   84   1   8.8671934954785616E+00   8.4886833465290028E+00   1.0316104066950128E+01
   85   2   1.1278304446380686E+01   2.7753610938474949E+00   2.5869310188120209E-01
   86   1   1.1033304349824895E+01   2.4666809724927163E+00   1.1790004647915836E+01
   87   1   1.0891704293946153E+01   3.7006114587822809E+00   2.5705710132729159E-01
   88   2   8.2016032333931506E+00   1.6324206436353956E+00   1.5682106182280566E+00
   89   1   7.2671828650916206E+00   1.6865006646639324E+00   1.2142504785072221E+00
   90   1   8.0839931870788249E+00   8.5630033734166577E-01   2.1817008599501357E+00
   91   2   3.2482512806789106E+00   7.9039831157273888E+00   5.2566620721285968E+00
   92   1   3.9975815759116258E+00   7.5729029855748911E+00   4.6237118227568850E+00
   93   1   3.1006312223233312E+00   8.8394634847164433E+00   5.0957520086425978E+00
   94   2   5.8264322966661837E+00   1.2370104876712334E+01   3.7802514904185096E+00
   95   1   6.3821325157471573E+00   1.1835004665391386E+01   3.1185912295491995E+00
   96   1   5.8709323147060459E+00   1.1806404654489318E+01   4.6759518433008820E+00
   97   2   2.7629410893862012E+00   9.6734638134650321E+00   1.1419404501765388E+01
   98   1   3.3024113016594918E+00   9.7620838484496080E+00   1.0590604175191421E+01
   99   1   2.9721411719474977E+00   8.7946534672592929E+00   1.1670604600954706E+01
  100   2   6.6683126286287511E+00   9.4454137238144984E+00   4.6364818276698427E+00
  101   1   7.6595330195033711E+00   9.4931337423054227E+00   4.4817417667030570E+00
  102   1   6.6512826223006289E+00   9.2519636472902658E+00   5.6279522187914841E+00
  103   2   8.6987034293925163E+00   1.2181204802355486E+01   1.1285004448979073E+01
  104   1   9.6388137999718175E+00   1.2318904856603263E+01   1.1023804345729912E+01
  105   1   8.5805733828607273E+00   4.0233315865377162E-01   1.1987004725619373E+01
  106   2   1.1870304679421016E+01   1.2341904863982955E+00   3.6429614363218414E+00
  107   1   1.1556004555878797E+01   9.5618437700424097E-01   4.4926917713840746E+00
  108   1   1.1432504506877409E+01   7.6519230162598373E-01   2.8894911390728506E+00
  109   2   1.1266304441403033E+01   1.0947804315615919E+01   8.0279331648559040E+00
  110   1   1.1016704342842127E+01   1.0030703954394728E+01   8.3552532940872783E+00
  111   1   1.2236004823481595E+01   1.0918604304544345E+01   7.9084831175278616E+00
  112   2   8.9500535280950295E+00   8.9472135271515860E+00   1.4728605805307846E+00
  113   1   9.2149636329567599E+00   8.9427735255797351E+00   5.5692921938937212E-01
  114   1   9.6785038157355672E+00   8.5127033556785516E+00   1.9622507736111483E+00
  115   2   5.6857922391536131E-01   1.5072605943061563E+00   6.2568824666041634E+00
  116   1   1.0299104061794673E+00   1.5539806128673561E+00   7.1144828044894854E+00
  117   1   1.1401504496355674E+00   2.0707608161198858E+00   5.6986822466405220E+00
  118   2   2.7192910717628642E+00   7.7536630566090325E+00   1.9447307666506983E+00
  119   1   3.5235413891081087E+00   7.5070929595391434E+00   1.4881705868316089E+00
  120   1   2.6735510539371448E+00   8.7295134414833839E+00   2.1160908343236748E+00
  121   2   8.2317232449715814E+00   1.4060905545413340E+00   5.5510521884232311E+00
  122   1   7.5676329833099363E+00   1.3258305224829998E+00   6.2328124570877028E+00
  123   1   8.0531231747593335E+00   2.1819308599445559E+00   5.0072219740009558E+00
  124   2   3.7983714975484659E+00   6.0778623958499187E+00   1.1343904472145436E+01
  125   1   4.5056017764776959E+00   6.7885926761207207E+00   1.1247704434031638E+01
  126   1   2.9819411755980587E+00   6.4187025302061329E+00   1.0911804301741313E+01
  127   2   1.1134204389619276E+01   4.5683618007698268E+00   3.6025214203462097E+00
  128   1   1.1820004659566203E+01   5.2815420820855623E+00   3.7030314597129048E+00
  129   1   1.1625204583189760E+01   3.7131714639534175E+00   3.5458113975868737E+00
  130   2   1.1217304422091877E+01   8.2054132346811848E+00   2.9292411545360437E+00
  131   1   1.1963204716073355E+01   8.8596634927162476E+00   2.5992510246562035E+00
  132   1   1.1648604591917206E+01   7.4352029313271153E+00   3.3689113282076777E+00
  133   2   8.4934333480473185E+00   8.2399932507299523E-01   8.4979333498477914E+00
  134   1   7.7515330559014499E+00   1.4236505614778057E+00   8.6362434046559606E+00
  135   1   8.6512534103428553E+00   7.7390030524321551E-01   9.4716737337379833E+00
  136   2   7.2941528778968545E-01   7.2927228749175361E+00   7.4705629450561899E+00
  137   1   1.2236804824060387E+01   7.3941229146767791E+00   7.0126527643265346E+00
  138   1   1.4104505561611411E+00   7.5248429664940142E+00   6.7899226767786871E+00
  139   2   5.6965422455420516E+00   1.1070204363953758E+01   1.0706404220606341E+01
  140   1   5.5877822027862942E+00   1.1666004598949588E+01   1.1482604526852114E+01
  141   1   5.4388021441876155E+00   1.0163204006467883E+01   1.0998304335880018E+01
  142   2   7.8937031118353884E+00   7.3130828828214280E+00   9.7889938589095102E+00
  143   1   8.0302731658344850E+00   6.7224926503911089E+00   1.0536504153910284E+01
  144   1   7.6787630271585838E+00   6.7054126431668992E+00   8.9883335432487677E+00
  145   2   8.1703932210128851E+00   1.1474104523216033E+01   2.8631611285298542E+00
  146   1   8.6619034149391183E+00   1.1519004541016113E+01   3.7052114607873969E+00
  147   1   8.5780133817494377E+00   1.0598804178213573E+01   2.5019509864080365E+00
  148   2   1.5121405961434258E+00   1.0973804325959851E+01   7.7483730546206555E+00
  149   1   1.7300506820826260E+00   1.0943304314344623E+01   6.7636726661877340E+00
  150   1   1.7669206966263544E+00   1.1807404654948220E+01   8.1137331986204586E+00
  151   2   1.0775804248326590E+01   2.7222510731635499E+00   7.6400330118777164E+00
  152   1   1.1582804566272344E+01   2.3631709317493139E+00   7.1720428271361696E+00
  153   1   1.0089403977680981E+01   2.4292809578698145E+00   6.9902727557814153E+00
  154   2   2.0730108172847106E+00   1.6255006409042994E+00   2.9971909165524800E-04
  155   1   2.3159209131089411E+00   2.4729909746634182E+00   4.1754716480047227E-01
  156   1   1.1088204373272357E+00   1.6985306697558959E+00   5.6515422074285927E-02
  157   2   1.0840804273921833E+01   5.4301421406474439E+00   7.1507328207278165E-01
  158   1   1.1010904340498000E+01   5.3565521116023644E+00   1.6739606597453953E+00
  159   1   1.1518004540557213E+01   6.1664724309727816E+00   5.6539022266517980E-01
  160   2   2.4031209476217938E+00   3.1820212546303450E+00   4.9864719656693781E+00
  161   1   1.8977307482573451E+00   3.4126213455304586E+00   4.1355116301538226E+00
  162   1   3.0670212092650408E+00   2.5037509869165544E+00   4.6764418434040333E+00
  163   2   7.5826529893877193E-01   6.6238626114849755E+00   3.8923715343351719E+00
  164   1   1.2483704919212633E+00   6.6832026349167561E+00   3.0827912155547059E+00
  165   1   1.3320605252308348E+00   6.9164727264653365E+00   4.6485718324612497E+00
  166   2   5.5806421999224893E+00   7.1014027996300628E+00   3.9435015548830892E+00
  167   1   5.9262723363022172E+00   6.6629526265500409E+00   3.1271612327464373E+00
  168   1   6.2032224455884455E+00   7.8297230864224696E+00   4.1982316549991072E+00
  169   2   4.1201716242678650E+00   1.0237404036073357E+01   2.4244409560085671E+00
  170   1   3.6802214507640780E+00   1.0987904331530775E+01   2.0140607937514381E+00
  171   1   3.7330914715918917E+00   1.0372104088944427E+01   3.3200413086862963E+00
  172   2   1.9523707694793666E+00   1.2386204882671885E+01   3.1990812610727763E+00
  173   1   2.6801710565834878E+00   5.8561123106250834E-01   2.9333811565523189E+00
  174   1   1.1211604418364860E+00   5.3471921061005123E-01   3.1264312322579766E+00
  175   2   6.6901426373712747E+00   5.3322221019771732E+00   8.3199832801719591E+00
  176   1   5.8127622914989674E+00   5.6848022412023083E+00   8.1110631974428156E+00
  177   1   7.1391728144280506E+00   5.0769620012528032E+00   7.4620929415344177E+00
  178   2   6.2475624631950435E+00   8.5654333768548785E+00   1.2902905085972374E+00
  179   1   5.8718823147980386E+00   9.1341436007049417E+00   1.9729407776542569E+00
  180   1   7.2635228633167861E+00   8.5176433577444453E+00   1.3992405513713932E+00
  181   2   4.0812816090829092E+00   3.1650912479776898E+00   9.5824037778264124E+00
  182   1   4.1698016438628400E+00   3.4074913434461696E+00   1.0533204152448825E+01
  183   1   3.6320614320077342E+00   3.8943415351386661E+00   9.1173235941186395E+00
  184   2   6.2433024612507015E+00   5.5372921829130819E+00   1.8283107208136733E+00
  185   1   6.8959927186333783E+00   5.9261023360072409E+00   1.2104304773574766E+00
  186   1   6.7820226738412872E+00   5.0069119740544918E+00   2.4937309831332848E+00
  187   2   1.2359304872073695E+00   6.6533726230321895E+00   1.0195404019445339E+01
  188   1   8.2126032394994319E-01   5.7823822798118050E+00   1.0038903957416879E+01
  189   1   1.4575805748734485E+00   7.0325527722415861E+00   9.4123637104205145E+00
  190   2   1.7294806820274307E+00   1.2765105033636661E+00   8.6733834191701309E+00
  191   1   8.7497734475951017E-01   1.4490105711470334E+00   9.1501236072656038E+00
  192   1   2.5056009877919831E+00   1.7664406963849144E+00   8.9791935399963361E+00
